Protein in water
78874
    1DC     O5'    1   2.959   4.366   3.353 -0.5018  0.0688  0.4012
    1DC     H5T    2   3.022   4.322   3.411  1.0023 -1.2343 -2.0448
    1DC     C5'    3   2.848   4.286   3.322 -0.5290  0.2243  0.0848
    1DC    H5'1    4   2.779   4.322   3.246 -1.1730  1.4378  1.1920
    1DC    H5'2    5   2.797   4.274   3.418  0.9767 -0.8052  0.7880
    1DC     C4'    6   2.882   4.149   3.263  0.4833  0.4175  0.2132
    1DC     H4'    7   2.789   4.098   3.240  1.1342 -0.6227 -0.1990
    1DC     O4'    8   2.963   4.159   3.147 -0.1501 -0.0353 -0.2739
    1DC     C1'    9   3.023   4.034   3.124 -0.2602 -0.0418 -0.5246
    1DC     H1'   10   2.986   3.971   3.043  1.7982 -2.6376  0.4070
    1DC      N1   11   3.168   4.050   3.102 -0.0935  0.0132  0.5971
    1DC      C6   12   3.232   4.158   3.156  0.3190  0.6247 -1.0533
    1DC      H6   13   3.175   4.235   3.207  1.9846  1.5843 -0.5573
    1DC      C5   14   3.366   4.168   3.165  0.2919  0.5833 -0.5378
    1DC      H5   15   3.408   4.256   3.212  0.8465 -0.6906  1.4439
    1DC      C4   16   3.439   4.062   3.101 -0.1374  0.3256 -0.6063
    1DC      N4   17   3.566   4.089   3.068  0.1486 -0.4111 -0.1294
    1DC     H41   18   3.603   4.173   3.109  0.8817 -0.9060  0.2494
    1DC     H42   19   3.624   4.027   3.012  3.4778  2.3763 -0.0360
    1DC      N3   20   3.380   3.958   3.041 -0.0541  0.1223 -0.3390
    1DC      C2   21   3.244   3.952   3.042 -0.0750  0.5307 -0.2321
    1DC      O2   22   3.199   3.844   3.003  0.2513  0.3273 -0.0499
    1DC     C3'   23   2.958   4.055   3.356 -0.2024 -0.2422  0.1104
    1DC     H3'   24   3.048   4.097   3.401  0.7421 -1.3906 -0.6636
    1DC     C2'   25   3.009   3.954   3.253 -0.2771  0.2085 -0.3718
    1DC    H2'1   26   3.101   3.909   3.291  0.6516  1.8176 -0.6203
    1DC    H2'2   27   2.933   3.879   3.234  0.7125 -1.0948  0.6457
    1DC     O3'   28   2.866   4.010   3.453 -0.2874 -0.0243  0.1317
    2DG       P   29   2.916   3.953   3.595 -0.0024  0.1366  0.0955
    2DG     O1P   30   2.788   3.918   3.660  0.4055 -0.8584  0.3732
    2DG     O2P   31   3.005   4.051   3.661  0.2093 -0.4479  0.6902
    2DG     O5'   32   3.001   3.818   3.572  0.1348  0.1189  0.6723
    2DG     C5'   33   2.939   3.698   3.534  0.2432  0.2201  0.1597
    2DG    H5'1   34   2.868   3.723   3.455 -0.6006  1.6425  1.3116
    2DG    H5'2   35   2.893   3.672   3.629  2.9844 -1.5844  1.1372
    2DG     C4'   36   3.033   3.584   3.495 -0.1485 -0.0179 -0.1027
    2DG     H4'   37   2.986   3.486   3.488  1.4113 -0.8473  0.5292
    2DG     O4'   38   3.095   3.603   3.369  0.1345  0.1062  0.0535
    2DG     C1'   39   3.221   3.540   3.378 -0.0199 -0.2776 -0.4453
    2DG     H1'   40   3.241   3.465   3.302  1.9377  0.3017 -0.5392
    2DG      N9   41   3.322   3.647   3.373 -0.2186 -0.0604  0.1400
    2DG      C8   42   3.313   3.782   3.400 -0.0289  0.1387 -0.7733
    2DG      H8   43   3.224   3.823   3.445  2.1750  3.4162  0.9805
    2DG      N7   44   3.420   3.850   3.370  0.5155 -0.1595  0.4136
    2DG      C5   45   3.507   3.754   3.321 -0.2837 -0.1669 -1.0593
    2DG      C6   46   3.642   3.766   3.277  0.0730  0.3041  0.1208
    2DG      O6   47   3.710   3.867   3.263  0.0278  0.3347  0.1155
    2DG      N1   48   3.701   3.643   3.254 -0.2935  0.1630 -0.0781
    2DG      H1   49   3.800   3.643   3.232 -0.5845  2.3529 -1.7644
    2DG      C2   50   3.632   3.523   3.262 -0.0821 -0.0081 -0.7820
    2DG      N2   51   3.701   3.411   3.234  0.3347 -0.0492  0.3785
    2DG     H21   52   3.802   3.409   3.230  0.4745  0.5191  2.3761
    2DG     H22   53   3.649   3.325   3.246  0.5596 -0.0838  1.1517
    2DG      N3   54   3.506   3.509   3.302  0.3192  0.0331  0.5433
    2DG      C4   55   3.449   3.630   3.324 -0.2930 -0.1452 -0.0234
    2DG     C3'   56   3.145   3.563   3.596 -0.0027 -0.0826 -0.2776
    2DG     H3'   57   3.194   3.654   3.630  1.9663 -0.2001 -2.5171
    2DG     C2'   58   3.233   3.469   3.513  0.0767  0.0127 -0.3011
    2DG    H2'1   59   3.334   3.457   3.551 -0.2068  2.1478  1.2980
    2DG    H2'2   60   3.180   3.375   3.502 -0.4302  0.4785 -2.1963
    2DG     O3'   61   3.096   3.479   3.699 -0.0547  0.6502  0.3009
    3DA       P   62   3.163   3.473   3.845  0.1915  0.3668  0.1766
    3DA     O1P   63   3.076   3.386   3.927  0.0509  0.1690 -0.1806
    3DA     O2P   64   3.195   3.609   3.893  0.2811  0.3197  0.2515
    3DA     O5'   65   3.300   3.394   3.815  0.2341  0.4391  0.1795
    3DA     C5'   66   3.310   3.254   3.799  0.4855  0.4688  0.0715
    3DA    H5'1   67   3.234   3.200   3.742  2.2169 -2.5542  0.4281
    3DA    H5'2   68   3.304   3.207   3.897  0.7374  2.7161  1.2338
    3DA     C4'   69   3.445   3.205   3.748  0.1388 -0.2809 -0.1402
    3DA     H4'   70   3.434   3.100   3.721  0.1122  0.0893 -1.6406
    3DA     O4'   71   3.484   3.280   3.635  0.4284  0.0895  0.2028
    3DA     C1'   72   3.621   3.313   3.639  0.4960 -0.1799  0.1533
    3DA     H1'   73   3.673   3.259   3.561  1.3592 -1.3674  1.5065
    3DA      N9   74   3.657   3.456   3.632 -0.0307 -0.0362  0.3335
    3DA      C8   75   3.582   3.563   3.676 -0.3922 -0.1270 -0.0609
    3DA      H8   76   3.483   3.558   3.719 -0.3677  1.9483  0.3339
    3DA      N7   77   3.646   3.675   3.660 -0.2201 -0.2188 -0.0189
    3DA      C5   78   3.766   3.641   3.600  0.0439 -0.0742  0.4180
    3DA      C6   79   3.881   3.707   3.554 -0.1972 -0.1260 -0.2702
    3DA      N6   80   3.909   3.837   3.563 -0.0979 -0.1173 -0.6691
    3DA     H61   81   3.839   3.902   3.596 -1.0078 -0.6349 -1.5597
    3DA     H62   82   3.989   3.885   3.522 -0.4815  0.7654 -0.4088
    3DA      N1   83   3.989   3.639   3.512  0.1689 -0.2257  0.8061
    3DA      C2   84   3.982   3.508   3.499 -0.3059 -0.1055 -0.2475
    3DA      H2   85   4.079   3.471   3.471 -0.3700  0.2593 -0.9747
    3DA      N3   86   3.881   3.432   3.540  0.2890 -0.1811  1.1365
    3DA      C4   87   3.777   3.505   3.587 -0.0994 -0.0594  0.1232
    3DA     C3'   88   3.551   3.220   3.858  0.4159 -0.1751 -0.4207
    3DA     H3'   89   3.506   3.301   3.916  0.1177  0.1158 -1.0388
    3DA     C2'   90   3.671   3.258   3.772  0.7537  0.0328  0.1445
    3DA    H2'1   91   3.726   3.334   3.829  0.3865 -1.7804  3.1426
    3DA    H2'2   92   3.739   3.174   3.759  1.1332  0.1829  1.0397
    3DA     O3'   93   3.573   3.102   3.932  0.7057  0.0136 -0.2066
    4DC       P   94   3.638   3.099   4.079  0.3728 -0.0422 -0.0581
    4DC     O1P   95   3.623   2.958   4.123  0.2345  0.0718  0.2599
    4DC     O2P   96   3.583   3.211   4.159  0.5507  0.2295 -0.3160
    4DC     O5'   97   3.795   3.127   4.053  0.4241  0.2124  0.5146
    4DC     C5'   98   3.882   3.024   4.013 -0.1115 -0.0861  0.1083
    4DC    H5'1   99   3.851   2.973   3.922  2.0794 -0.6275 -0.3820
    4DC    H5'2  100   3.878   2.944   4.088 -1.0840 -0.1123  0.0391
    4DC     C4'  101   4.024   3.075   3.994  0.1196 -0.7047  0.1259
    4DC     H4'  102   4.085   2.986   3.984  0.1074 -1.3495  4.0644
    4DC     O4'  103   4.041   3.154   3.879  0.2116 -0.2102  0.4732
    4DC     C1'  104   4.139   3.255   3.895 -0.1642  0.1811  0.3321
    4DC     H1'  105   4.223   3.248   3.826  1.8484  2.0557  2.4461
    4DC      N1  106   4.082   3.391   3.888 -0.0174  0.2169 -0.3221
    4DC      C6  107   3.960   3.421   3.941 -0.2978  0.6330 -1.1984
    4DC      H6  108   3.906   3.346   3.997  1.5592  0.1902  0.0822
    4DC      C5  109   3.912   3.547   3.933 -0.8476  0.4833 -0.3699
    4DC      H5  110   3.820   3.578   3.981 -1.3611  0.0839 -1.0768
    4DC      C4  111   3.999   3.641   3.868  0.0151 -0.0335  0.0255
    4DC      N4  112   3.963   3.769   3.851  0.1106 -0.1298 -0.9933
    4DC     H41  113   3.873   3.802   3.881  1.5090  2.5327  0.6445
    4DC     H42  114   4.002   3.812   3.769 -1.0693  1.2679 -0.8525
    4DC      N3  115   4.122   3.616   3.821  0.1065  0.4708 -0.0093
    4DC      C2  116   4.167   3.489   3.840 -0.0989  0.3800 -0.1370
    4DC      O2  117   4.276   3.456   3.795  0.0351  0.1526  0.3475
    4DC     C3'  118   4.082   3.160   4.107 -0.1530 -0.2797 -0.0510
    4DC     H3'  119   4.016   3.238   4.145  1.1588  0.9590 -0.2139
    4DC     C2'  120   4.196   3.231   4.034 -0.0824 -0.0742  0.2571
    4DC    H2'1  121   4.220   3.327   4.081  0.0915  2.5745 -4.5639
    4DC    H2'2  122   4.286   3.171   4.029 -1.0328 -1.4439 -1.5500
    4DC     O3'  123   4.132   3.074   4.207  0.6402  0.3776  0.1281
    5DT       P  124   4.190   3.134   4.345  0.2845  0.2542  0.3314
    5DT     O1P  125   4.238   3.023   4.429  0.0951 -0.5920 -0.6559
    5DT     O2P  126   4.079   3.218   4.396 -0.2295 -0.4062  0.3056
    5DT     O5'  127   4.320   3.224   4.316  0.1762  0.1053 -0.6667
    5DT     C5'  128   4.444   3.170   4.274  0.0371 -0.5849 -0.2152
    5DT    H5'1  129   4.425   3.117   4.181 -2.7552  0.4264 -0.3266
    5DT    H5'2  130   4.477   3.097   4.348 -2.1418  0.2668  1.7579
    5DT     C4'  131   4.542   3.284   4.249 -0.6199 -0.0485 -0.3823
    5DT     H4'  132   4.639   3.249   4.215  0.2528  1.0954  0.7914
    5DT     O4'  133   4.497   3.377   4.153 -0.0982  0.1510 -0.4391
    5DT     C1'  134   4.538   3.507   4.186  0.3985 -0.1591  0.1637
    5DT     H1'  135   4.620   3.541   4.122  0.5700  0.0932  0.5120
    5DT      N1  136   4.423   3.598   4.178  0.2492 -0.3887 -0.2987
    5DT      C6  137   4.298   3.558   4.217  0.2026  0.1385  0.1019
    5DT      H6  138   4.296   3.466   4.273  2.7603  0.2616  0.5321
    5DT      C5  139   4.191   3.640   4.209  0.1937  0.0917 -0.2852
    5DT      C7  140   4.066   3.593   4.279  0.2905 -0.1551 -0.2753
    5DT     H71  141   4.067   3.484   4.281  2.1890 -0.1558  0.3832
    5DT     H72  142   4.058   3.631   4.380  1.6092 -1.5364  0.3883
    5DT     H73  143   3.975   3.622   4.226 -0.7521  0.1154  1.5810
    5DT      C4  144   4.202   3.764   4.136 -0.1644  0.4037  0.1867
    5DT      O4  145   4.107   3.839   4.116 -0.0627  0.5493  0.2444
    5DT      N3  146   4.332   3.799   4.102 -0.1051 -0.1519 -0.1726
    5DT      H3  147   4.340   3.891   4.061  1.9739 -0.9104 -1.6479
    5DT      C2  148   4.446   3.721   4.118 -0.0981 -0.0632  0.2279
    5DT      O2  149   4.559   3.763   4.097  0.0574 -0.7747 -0.4012
    5DT     C3'  150   4.557   3.365   4.378  0.0833 -0.1716 -0.3821
    5DT     H3'  151   4.464   3.369   4.436  1.8276 -0.3529  2.6425
    5DT     C2'  152   4.585   3.507   4.332  0.0794  0.0450  0.2675
    5DT    H2'1  153   4.526   3.578   4.390 -0.4436  1.0146 -1.3837
    5DT    H2'2  154   4.691   3.534   4.324  0.4184 -1.4545 -0.7290
    5DT     O3'  155   4.667   3.333   4.460 -0.3933 -0.4418  0.1639
    6DC       P  156   4.681   3.392   4.609  0.1315 -0.0221 -0.0478
    6DC     O1P  157   4.797   3.327   4.676 -0.4937 -0.8359  0.2566
    6DC     O2P  158   4.549   3.391   4.675  0.0252 -0.3293 -0.2594
    6DC     O5'  159   4.717   3.549   4.607 -0.0003  0.0162  0.4682
    6DC     C5'  160   4.835   3.596   4.545 -0.1750 -0.0289  0.1001
    6DC    H5'1  161   4.865   3.541   4.457 -0.7082 -2.6651  1.4741
    6DC    H5'2  162   4.920   3.594   4.613  0.7855  2.5225 -0.8920
    6DC     C4'  163   4.829   3.747   4.523  0.2705 -0.0890 -0.4421
    6DC     H4'  164   4.927   3.782   4.492 -0.7658  0.9530 -2.8066
    6DC     O4'  165   4.738   3.788   4.423  0.2405 -0.2464 -0.4794
    6DC     C1'  166   4.705   3.925   4.430  0.1758 -0.2653 -0.4208
    6DC     H1'  167   4.760   3.982   4.356  0.3604 -2.4963 -2.1147
    6DC      N1  168   4.560   3.950   4.420  0.1132 -0.5229 -0.1745
    6DC      C6  169   4.468   3.856   4.457 -0.0118 -0.2161  0.3066
    6DC      H6  170   4.515   3.765   4.491  0.5498  0.7369  2.2063
    6DC      C5  171   4.335   3.877   4.443  0.0373  0.1879  0.4226
    6DC      H5  172   4.262   3.803   4.471  0.4223  0.6421  2.8173
    6DC      C4  173   4.298   4.005   4.391  0.5218  0.0856 -0.1986
    6DC      N4  174   4.172   4.026   4.350  0.4611 -0.3859 -0.2542
    6DC     H41  175   4.099   3.957   4.358  0.8596 -0.8455 -0.5114
    6DC     H42  176   4.155   4.106   4.291  1.0272  0.3944  0.6087
    6DC      N3  177   4.385   4.103   4.368  0.5998 -0.0708 -0.5773
    6DC      C2  178   4.518   4.075   4.377  0.5059 -0.4181 -0.2562
    6DC      O2  179   4.591   4.167   4.343  0.1012  0.0173  0.0326
    6DC     C3'  180   4.787   3.835   4.640  0.6082  0.0329 -0.4124
    6DC     H3'  181   4.700   3.786   4.685  1.6624  0.4327  2.2874
    6DC     C2'  182   4.749   3.965   4.570 -0.7059 -0.1950 -0.1548
    6DC    H2'1  183   4.672   4.017   4.627 -0.4682 -0.2810  0.2491
    6DC    H2'2  184   4.840   4.026   4.565 -2.3347  2.6323  1.6129
    6DC     O3'  185   4.894   3.849   4.732  0.1123 -0.2760  0.2217
    7DT       P  186   4.867   3.914   4.876  0.1681  0.3144 -0.0334
    7DT     O1P  187   4.997   3.905   4.945  0.2889 -0.1792 -0.3226
    7DT     O2P  188   4.752   3.849   4.943  0.3098  0.2174  0.1151
    7DT     O5'  189   4.832   4.071   4.858  0.2429  0.3763  0.3422
    7DT     C5'  190   4.934   4.150   4.801 -0.3358  0.4113 -0.6688
    7DT    H5'1  191   4.979   4.116   4.707  2.2306 -0.1425  0.6697
    7DT    H5'2  192   5.014   4.143   4.874 -1.3947  1.0929  0.5906
    7DT     C4'  193   4.880   4.291   4.780  0.5235  0.7895 -0.3423
    7DT     H4'  194   4.963   4.347   4.737  0.3495  1.9246  0.7337
    7DT     O4'  195   4.780   4.290   4.681  0.1644  0.6802  0.0197
    7DT     C1'  196   4.681   4.385   4.712 -0.3186  0.0115  0.5591
    7DT     H1'  197   4.672   4.456   4.629 -0.2580  0.9511  1.3428
    7DT      N1  198   4.544   4.330   4.718 -0.3313 -0.0265 -0.0218
    7DT      C6  199   4.523   4.199   4.752 -0.1088  0.0792  0.5271
    7DT      H6  200   4.603   4.135   4.786 -1.3374 -1.5146  0.5394
    7DT      C5  201   4.403   4.137   4.753 -0.0018 -0.1536 -0.3315
    7DT      C7  202   4.382   3.995   4.797  0.1175  0.0179  0.2795
    7DT     H71  203   4.321   3.983   4.887  0.6928 -1.7275  0.4728
    7DT     H72  204   4.328   3.948   4.715 -1.4913  3.6245 -0.9146
    7DT     H73  205   4.482   3.952   4.802  2.3850  4.0814 -3.5427
    7DT      C4  206   4.294   4.209   4.690  0.0171  0.2045  0.0406
    7DT      O4  207   4.181   4.166   4.667  0.2636 -0.2536 -0.3216
    7DT      N3  208   4.316   4.344   4.669 -0.3897  0.3419  0.4779
    7DT      H3  209   4.236   4.396   4.636 -0.3123  1.1946  1.5705
    7DT      C2  210   4.438   4.410   4.680 -0.2032  0.1030 -0.1089
    7DT      O2  211   4.446   4.528   4.649  1.1185 -0.0868 -0.5451
    7DT     C3'  212   4.825   4.370   4.898 -0.0198  0.2295 -0.2186
    7DT     H3'  213   4.778   4.302   4.969 -1.3164 -0.7577 -1.9572
    7DT     C2'  214   4.715   4.459   4.841 -0.4815  0.1482  0.5254
    7DT    H2'1  215   4.637   4.461   4.917 -0.2658  1.4436  0.7315
    7DT    H2'2  216   4.756   4.558   4.818  1.1094  0.2958  3.5003
    7DT     O3'  217   4.917   4.453   4.965  0.3165 -0.0670 -0.3130
    8DA       P  218   4.897   4.507   5.115  0.3151 -0.1232 -0.2933
    8DA     O1P  219   5.013   4.592   5.145  0.1706 -0.0302  0.0039
    8DA     O2P  220   4.861   4.406   5.218  0.6763 -0.0085 -0.0533
    8DA     O5'  221   4.765   4.598   5.099  0.2007 -0.2091  0.1457
    8DA     C5'  222   4.768   4.733   5.058 -0.0709 -0.0550  0.6243
    8DA    H5'1  223   4.817   4.749   4.962  2.3734  0.6294  1.9200
    8DA    H5'2  224   4.826   4.791   5.130 -0.7368 -1.1757  2.1183
    8DA     C4'  225   4.630   4.798   5.065 -0.0456  0.0718 -0.0326
    8DA     H4'  226   4.653   4.903   5.047  3.5037 -0.5326  0.2814
    8DA     O4'  227   4.551   4.732   4.969 -0.0626  0.3036 -0.1775
    8DA     C1'  228   4.415   4.762   4.991 -0.0265  0.1533  0.2513
    8DA     H1'  229   4.383   4.837   4.918 -1.1129  1.4141  1.9371
    8DA      N9  230   4.332   4.640   4.983  0.0136  0.1480 -0.1029
    8DA      C8  231   4.374   4.512   5.008 -0.5124  0.0136  0.1134
    8DA      H8  232   4.474   4.485   5.041 -0.9582 -1.0768  0.6113
    8DA      N7  233   4.288   4.415   4.991 -0.1690 -0.2382 -0.2192
    8DA      C5  234   4.179   4.489   4.947 -0.3856  0.0889  0.8325
    8DA      C6  235   4.047   4.457   4.911 -0.1808 -0.1211  0.2570
    8DA      N6  236   4.001   4.332   4.895  0.1134 -0.1027 -0.8390
    8DA     H61  237   4.062   4.262   4.934  1.7239  0.8806 -1.4920
    8DA     H62  238   3.920   4.309   4.839  0.2292 -2.0878 -0.2586
    8DA      N1  239   3.955   4.547   4.875  0.1133  0.1845  0.2682
    8DA      C2  240   3.993   4.674   4.880 -0.0412  0.2219  0.5087
    8DA      H2  241   3.918   4.745   4.849  1.0042  1.4264  0.6812
    8DA      N3  242   4.111   4.721   4.917  0.0415  0.1709  0.3155
    8DA      C4  243   4.200   4.624   4.946  0.0520  0.0253 -0.1925
    8DA     C3'  244   4.548   4.801   5.193 -0.0478  0.1913 -0.0370
    8DA     H3'  245   4.560   4.702   5.237 -0.1552  0.2229  0.0648
    8DA     C2'  246   4.409   4.819   5.132 -0.0152  0.7059  0.0314
    8DA    H2'1  247   4.343   4.762   5.198  0.7441  2.1860  2.1915
    8DA    H2'2  248   4.370   4.920   5.126  2.3923  1.6770 -0.3881
    8DA     O3'  249   4.566   4.910   5.281  0.4746  0.0260  0.0633
    9DC       P  250   4.502   4.914   5.429  0.0598  0.1516 -0.1161
    9DC     O1P  251   4.555   5.039   5.488 -0.4422  0.1946  0.2519
    9DC     O2P  252   4.522   4.785   5.499 -0.5866 -0.0425 -0.2895
    9DC     O5'  253   4.343   4.918   5.409  0.0674  0.2917 -0.1494
    9DC     C5'  254   4.282   5.044   5.394  0.2241  0.4132  0.2513
    9DC    H5'1  255   4.313   5.103   5.308 -0.9524  0.2170 -0.3296
    9DC    H5'2  256   4.313   5.101   5.482 -3.0534  0.9598  1.2021
    9DC     C4'  257   4.131   5.025   5.388  0.1642  0.9671 -0.0024
    9DC     H4'  258   4.084   5.123   5.374  0.6971  1.5307  1.8702
    9DC     O4'  259   4.092   4.940   5.282 -0.1397  0.4172  0.5487
    9DC     C1'  260   3.972   4.877   5.323 -0.1289  0.0961  0.0946
    9DC     H1'  261   3.876   4.913   5.287  0.9631  0.6878 -2.4415
    9DC      N1  262   3.974   4.733   5.293  0.4142  0.1297 -0.0445
    9DC      C6  263   4.089   4.662   5.310  0.2651 -0.0636  0.1672
    9DC      H6  264   4.178   4.716   5.341  1.3102 -0.5055 -1.9116
    9DC      C5  265   4.094   4.530   5.283  0.0453 -0.0957  0.2855
    9DC      H5  266   4.185   4.475   5.300 -0.1006 -0.3835  0.1389
    9DC      C4  267   3.967   4.471   5.253 -0.0227 -0.0482  0.4786
    9DC      N4  268   3.960   4.339   5.233  0.6087 -0.0421  0.1876
    9DC     H41  269   4.043   4.283   5.234  0.7323  0.0970 -0.9105
    9DC     H42  270   3.866   4.305   5.217  0.9875 -0.3778 -1.4012
    9DC      N3  271   3.849   4.534   5.246  0.1666  0.2547 -0.0076
    9DC      C2  272   3.855   4.669   5.261  0.2828  0.2194  0.2609
    9DC      O2  273   3.747   4.722   5.237  0.1063 -0.1272  0.2909
    9DC     C3'  274   4.074   4.983   5.523  0.3447 -0.0725 -0.2464
    9DC     H3'  275   4.155   4.925   5.568 -0.3832 -0.7747  0.1820
    9DC     C2'  276   3.970   4.881   5.476 -0.2137  0.3374  0.0880
    9DC    H2'1  277   3.989   4.785   5.524 -0.1459  0.3755  0.1380
    9DC    H2'2  278   3.869   4.910   5.505 -0.2286  0.4208 -0.0439
    9DC     O3'  279   4.019   5.083   5.605  0.3180 -0.2507 -0.0460
   10DG       P  280   3.972   5.059   5.757 -0.0006  0.0334 -0.0998
   10DG     O1P  281   3.957   5.191   5.824  0.5310 -0.0069  0.1022
   10DG     O2P  282   4.060   4.954   5.812  0.5353  0.4957 -0.0628
   10DG     O5'  283   3.825   4.995   5.753  0.0404 -0.0708  0.0336
   10DG     C5'  284   3.718   5.071   5.700 -0.1264  0.0271  0.5027
   10DG    H5'1  285   3.753   5.118   5.607  2.4784  0.8491  1.7814
   10DG    H5'2  286   3.683   5.146   5.770 -1.1540  0.1066 -0.0786
   10DG     C4'  287   3.594   4.992   5.659 -0.0960  0.1361  0.1948
   10DG     H4'  288   3.518   5.064   5.627  0.0095 -0.5030 -1.5746
   10DG     O4'  289   3.623   4.901   5.556 -0.0769 -0.1235  0.4314
   10DG     C1'  290   3.533   4.793   5.570 -0.4157  0.1087  0.0519
   10DG     H1'  291   3.470   4.795   5.481 -1.2635 -0.2076  0.6331
   10DG      N9  292   3.611   4.668   5.581 -0.1169  0.3030  0.1543
   10DG      C8  293   3.741   4.654   5.620 -0.0774 -0.2612 -0.1711
   10DG      H8  294   3.786   4.740   5.669 -2.1026  0.6266  0.2221
   10DG      N7  295   3.787   4.535   5.591  0.4456  0.0319 -0.5664
   10DG      C5  296   3.678   4.464   5.542  0.1214  0.6023 -0.6867
   10DG      C6  297   3.667   4.336   5.482 -0.1824  0.2523  0.0889
   10DG      O6  298   3.750   4.247   5.462 -0.1807  0.4388 -0.7907
   10DG      N1  299   3.538   4.293   5.452 -0.0008  0.1204 -0.5297
   10DG      H1  300   3.530   4.196   5.428 -0.7011  0.5869 -2.3472
   10DG      C2  301   3.431   4.377   5.479 -0.1609 -0.3471  0.3528
   10DG      N2  302   3.312   4.318   5.465 -0.0458 -0.5694  0.3022
   10DG     H21  303   3.300   4.220   5.443  1.0956 -0.3109 -1.6830
   10DG     H22  304   3.230   4.376   5.473 -2.0135 -2.7293 -2.1939
   10DG      N3  305   3.439   4.504   5.521  0.2355  0.1872 -1.2227
   10DG      C4  306   3.566   4.543   5.548 -0.0772  0.2669  0.2361
   10DG     C3'  307   3.541   4.916   5.780 -0.2901  0.4293  0.2978
   10DG     H3'  308   3.625   4.861   5.823 -0.3473  1.0193  1.1795
   10DG     C2'  309   3.457   4.817   5.700 -0.2028  0.5087  0.1051
   10DG    H2'1  310   3.452   4.724   5.758 -1.0763  0.4780  0.0017
   10DG    H2'2  311   3.358   4.857   5.676 -0.4586 -0.0909  0.1294
   10DG     O3'  312   3.453   4.974   5.874 -0.7590  0.0662  0.0847
   11DG       P  313   3.443   4.910   6.021  0.2696 -0.5442 -0.0956
   11DG     O1P  314   3.347   4.995   6.096  0.4470  0.2779 -0.7874
   11DG     O2P  315   3.578   4.886   6.076  0.4207 -0.4597 -0.4304
   11DG     O5'  316   3.376   4.766   5.995  0.1356 -0.5173  0.0954
   11DG     C5'  317   3.236   4.760   5.977  0.1837  0.0140 -0.4813
   11DG    H5'1  318   3.219   4.822   5.889  1.1038 -3.3924 -3.2891
   11DG    H5'2  319   3.184   4.801   6.064 -1.7854 -0.1320 -1.5154
   11DG     C4'  320   3.177   4.624   5.941 -0.2244  0.0202  0.1538
   11DG     H4'  321   3.069   4.633   5.926 -0.0684 -0.1076 -1.1497
   11DG     O4'  322   3.232   4.573   5.822 -0.5667  0.2553 -0.1078
   11DG     C1'  323   3.221   4.433   5.808 -0.6501  0.2476  0.0327
   11DG     H1'  324   3.176   4.397   5.715 -0.3448  2.7634 -1.1589
   11DG      N9  325   3.355   4.373   5.818 -0.5388  0.4902 -0.0151
   11DG      C8  326   3.472   4.439   5.846 -0.1814 -0.6307  1.2052
   11DG      H8  327   3.474   4.544   5.870  1.3811 -0.7194  1.5658
   11DG      N7  328   3.579   4.365   5.844  0.1169 -0.1808 -0.1762
   11DG      C5  329   3.534   4.242   5.797 -0.1680 -0.0600 -0.2216
   11DG      C6  330   3.604   4.126   5.754  0.0723 -0.1252  0.3375
   11DG      O6  331   3.726   4.110   5.750  0.1100  0.2446  0.0001
   11DG      N1  332   3.527   4.013   5.729 -0.3496  0.1054  0.5809
   11DG      H1  333   3.567   3.924   5.704  2.5589  1.2271  0.9603
   11DG      C2  334   3.389   4.025   5.735 -0.3898 -0.3397  0.6227
   11DG      N2  335   3.324   3.909   5.728  0.1387 -0.5960 -0.1750
   11DG     H21  336   3.375   3.821   5.725  2.4046  0.6518 -0.0859
   11DG     H22  337   3.225   3.902   5.746  0.0432  0.2214 -0.3513
   11DG      N3  338   3.321   4.137   5.763  0.3087  0.1460  0.4217
   11DG      C4  339   3.397   4.244   5.796 -0.1600  0.6055  0.0206
   11DG     C3'  340   3.192   4.505   6.035 -0.3901 -0.1254 -0.0021
   11DG     H3'  341   3.296   4.501   6.069 -0.2059 -0.0673 -0.5523
   11DG     C2'  342   3.155   4.392   5.940  0.6592 -0.8033  0.3761
   11DG    H2'1  343   3.184   4.293   5.976 -1.6455 -1.1573  1.4368
   11DG    H2'2  344   3.047   4.406   5.934  0.8504  1.8039  1.5274
   11DG     O3'  345   3.104   4.512   6.145 -0.3505 -0.0864  0.0270
   12DA       P  346   3.135   4.460   6.294  0.1472  0.1285  0.0015
   12DA     O1P  347   3.033   4.519   6.385 -0.3763 -0.0883 -0.4368
   12DA     O2P  348   3.276   4.492   6.323  0.1102  0.0275  0.2934
   12DA     O5'  349   3.126   4.299   6.287 -0.2087  0.1618 -0.3548
   12DA     C5'  350   3.007   4.228   6.262 -0.2654  0.0999  0.0952
   12DA    H5'1  351   2.946   4.274   6.185 -1.1115 -1.5521 -0.2583
   12DA    H5'2  352   2.952   4.230   6.356  0.0899 -1.5799  0.3611
   12DA     C4'  353   3.024   4.080   6.232  0.5588  0.2349 -0.1372
   12DA     H4'  354   2.929   4.025   6.226  1.0211 -0.4666 -1.6600
   12DA     O4'  355   3.091   4.056   6.110  0.0157 -0.1093 -0.3741
   12DA     C1'  356   3.173   3.941   6.113  0.1457 -0.0061  0.0674
   12DA     H1'  357   3.132   3.875   6.037 -1.5649 -1.5476  2.1993
   12DA      N9  358   3.313   3.974   6.081  0.2691  0.0323  0.6315
   12DA      C8  359   3.381   4.093   6.091  0.2092  0.0977  0.2852
   12DA      H8  360   3.334   4.190   6.100  0.8594  0.4773 -0.3516
   12DA      N7  361   3.508   4.076   6.067  0.0384 -0.0321 -0.5579
   12DA      C5  362   3.524   3.939   6.052 -0.0293 -0.1241  0.1778
   12DA      C6  363   3.635   3.861   6.015 -0.2192  0.0087 -0.6828
   12DA      N6  364   3.757   3.914   6.003 -0.0721 -0.1033  0.2702
   12DA     H61  365   3.762   4.013   6.025 -1.6616  0.1951 -0.5871
   12DA     H62  366   3.828   3.848   5.975  0.0250 -0.5032  1.3851
   12DA      N1  367   3.623   3.728   6.001  0.4690 -0.0793 -0.4716
   12DA      C2  368   3.502   3.679   6.021  0.4858 -0.0036 -0.1920
   12DA      H2  369   3.503   3.571   6.018 -1.2733 -0.0522 -0.4924
   12DA      N3  370   3.386   3.741   6.038  0.4492 -0.1706  0.1851
   12DA      C4  371   3.403   3.874   6.052 -0.0413 -0.0973  0.1010
   12DA     C3'  372   3.110   4.010   6.337  0.4293  0.2814  0.0007
   12DA     H3'  373   3.198   4.070   6.359 -1.3268  2.0910  2.7069
   12DA     C2'  374   3.145   3.887   6.253 -0.0127  0.1032  0.0765
   12DA    H2'1  375   3.229   3.824   6.280  0.2725  0.2189 -0.5456
   12DA    H2'2  376   3.058   3.821   6.250  0.3908 -0.3788 -1.8635
   12DA     O3'  377   3.029   3.973   6.446  0.2289 -0.0179 -0.2481
   13DA       P  378   3.099   3.920   6.581  0.0288  0.1736 -0.0674
   13DA     O1P  379   2.984   3.900   6.672 -0.0901 -0.5373 -0.3697
   13DA     O2P  380   3.207   4.010   6.628 -0.2891  0.4202  0.1997
   13DA     O5'  381   3.162   3.773   6.564  0.3515  0.2916  0.1023
   13DA     C5'  382   3.085   3.662   6.525  0.1843  0.3012  0.4025
   13DA    H5'1  383   3.018   3.699   6.448 -1.4563  1.2268  2.1900
   13DA    H5'2  384   3.038   3.612   6.610 -2.6988 -2.2773 -2.4429
   13DA     C4'  385   3.168   3.550   6.462  0.0286  0.3351  0.1342
   13DA     H4'  386   3.099   3.473   6.429  1.6326 -0.9475 -0.3552
   13DA     O4'  387   3.242   3.590   6.349  0.2514  0.7137  0.4075
   13DA     C1'  388   3.369   3.529   6.342 -0.0623  0.0964 -0.1449
   13DA     H1'  389   3.394   3.467   6.256  0.6909  1.0623 -0.6408
   13DA      N9  390   3.479   3.626   6.357 -0.0788  0.0544  0.2627
   13DA      C8  391   3.469   3.759   6.387  0.4802  0.0763  0.3739
   13DA      H8  392   3.385   3.808   6.434  0.6626  0.1076  0.6725
   13DA      N7  393   3.586   3.815   6.376  0.4833  0.0578  0.3131
   13DA      C5  394   3.672   3.718   6.326 -0.0885 -0.3141  0.0379
   13DA      C6  395   3.803   3.715   6.274  0.0400  0.0826  0.3324
   13DA      N6  396   3.891   3.816   6.262 -0.3791  0.4255  0.0905
   13DA     H61  397   3.860   3.909   6.286 -0.2268  0.3424  0.6256
   13DA     H62  398   3.983   3.810   6.222  0.5020  1.7983  1.7945
   13DA      N1  399   3.860   3.602   6.230 -0.5479 -0.0608 -0.0839
   13DA      C2  400   3.786   3.493   6.232 -0.0362 -0.4079  0.0014
   13DA      H2  401   3.822   3.409   6.174  0.6752  0.2424 -0.5057
   13DA      N3  402   3.661   3.481   6.273 -0.0645 -0.2211 -0.0325
   13DA      C4  403   3.609   3.596   6.323 -0.2789 -0.2079 -0.2816
   13DA     C3'  404   3.266   3.497   6.567  0.2006  0.2584 -0.0651
   13DA     H3'  405   3.306   3.584   6.618 -0.5504  0.4062  0.2832
   13DA     C2'  406   3.369   3.443   6.468 -0.7491 -0.5841 -0.6067
   13DA    H2'1  407   3.462   3.440   6.525 -0.6984 -0.0354 -0.6553
   13DA    H2'2  408   3.341   3.343   6.435 -0.7130 -1.5189  1.9619
   13DA     O3'  409   3.211   3.401   6.655 -0.1195  0.3110 -0.2057
   14DG       P  410   3.267   3.374   6.803 -0.2182  0.0519 -0.2149
   14DG     O1P  411   3.175   3.271   6.856  0.2535 -0.1403  0.2460
   14DG     O2P  412   3.273   3.504   6.874 -0.2514  0.0202 -0.1543
   14DG     O5'  413   3.414   3.310   6.785 -0.2994 -0.0039 -0.6803
   14DG     C5'  414   3.428   3.178   6.738  0.1145 -0.0509 -0.4215
   14DG    H5'1  415   3.373   3.168   6.645  2.6775  0.7894 -2.1480
   14DG    H5'2  416   3.407   3.105   6.816  1.6156 -1.4878 -1.2766
   14DG     C4'  417   3.578   3.158   6.712  0.1984 -0.1436  0.1211
   14DG     H4'  418   3.593   3.063   6.661 -0.8064 -0.4848  0.4259
   14DG     O4'  419   3.613   3.250   6.612  0.5008 -0.1694  0.2041
   14DG     C1'  420   3.754   3.258   6.610  0.4935 -0.0952 -0.1029
   14DG     H1'  421   3.794   3.195   6.531  0.6503  1.2212 -1.1056
   14DG      N9  422   3.792   3.398   6.586 -0.1685  0.0367 -0.4098
   14DG      C8  423   3.725   3.512   6.624  0.0976  0.1361 -0.2349
   14DG      H8  424   3.621   3.509   6.651 -0.0291 -1.3140 -0.7887
   14DG      N7  425   3.792   3.622   6.605  0.3318  0.0514  0.0891
   14DG      C5  426   3.919   3.579   6.567  0.4164 -0.3832  0.8581
   14DG      C6  427   4.035   3.657   6.541  0.0580  0.0909  0.6782
   14DG      O6  428   4.049   3.778   6.551 -0.2301  0.1638  0.2218
   14DG      N1  429   4.141   3.582   6.493  0.1351  0.2526  0.5976
   14DG      H1  430   4.230   3.622   6.467 -0.1562 -1.1576 -3.1316
   14DG      C2  431   4.133   3.444   6.487  0.0320  0.2954 -0.4224
   14DG      N2  432   4.247   3.375   6.479 -0.2986 -0.3383  0.2252
   14DG     H21  433   4.336   3.422   6.473  0.4051 -1.5616  0.6534
   14DG     H22  434   4.232   3.275   6.477 -2.7000 -0.0076 -0.4812
   14DG      N3  435   4.023   3.370   6.506  0.2744  0.0389 -0.0079
   14DG      C4  436   3.917   3.443   6.549  0.0858 -0.2786  0.0615
   14DG     C3'  437   3.675   3.177   6.828  0.1565 -0.1928  0.1650
   14DG     H3'  438   3.644   3.260   6.892 -2.4056 -0.0791 -1.1103
   14DG     C2'  439   3.800   3.199   6.743  0.0730  0.0053  0.0906
   14DG    H2'1  440   3.871   3.259   6.800 -1.0103  0.1151  1.3530
   14DG    H2'2  441   3.844   3.102   6.717  1.2087  0.3298  0.7525
   14DG     O3'  442   3.702   3.063   6.905  0.0725 -0.2541  0.1027
   15DG       P  443   3.781   3.058   7.045  0.0646 -0.1885  0.1098
   15DG     O1P  444   3.781   2.916   7.085 -0.4772 -0.3749 -0.5581
   15DG     O2P  445   3.711   3.158   7.129 -0.3491 -0.3000 -0.1033
   15DG     O5'  446   3.938   3.097   7.041  0.0567 -0.1917 -0.2728
   15DG     C5'  447   4.034   2.999   7.013  0.0454 -0.1265 -0.5406
   15DG    H5'1  448   3.996   2.953   6.922 -0.6234 -0.5340 -0.0629
   15DG    H5'2  449   4.041   2.938   7.103 -0.0367  0.1662 -0.3350
   15DG     C4'  450   4.166   3.074   6.992  0.0976 -0.0621  0.0001
   15DG     H4'  451   4.240   2.998   6.967  0.8717  1.1908 -1.6970
   15DG     O4'  452   4.158   3.159   6.880 -0.0705  0.0939  0.1305
   15DG     C1'  453   4.253   3.263   6.894  0.1414 -0.0804 -0.0228
   15DG     H1'  454   4.332   3.256   6.819  0.2941  1.0113  0.0195
   15DG      N9  455   4.191   3.395   6.870 -0.2981 -0.2155  0.3442
   15DG      C8  456   4.067   3.435   6.912 -0.7338  0.1605 -1.2183
   15DG      H8  457   3.990   3.364   6.937 -0.7055  0.4276 -0.3467
   15DG      N7  458   4.048   3.560   6.882 -0.3421  0.4646 -0.2259
   15DG      C5  459   4.171   3.610   6.842  0.0363 -0.3264 -0.0601
   15DG      C6  460   4.216   3.739   6.804 -0.0916 -0.2423  0.0782
   15DG      O6  461   4.148   3.841   6.810  0.3915  0.1219 -0.5175
   15DG      N1  462   4.347   3.746   6.760 -0.0831  0.3100  0.1773
   15DG      H1  463   4.379   3.836   6.728 -0.5165  0.7797  1.0313
   15DG      C2  464   4.427   3.633   6.755 -0.2808  0.1861 -0.2365
   15DG      N2  465   4.559   3.647   6.736 -0.2894  0.6296  0.0140
   15DG     H21  466   4.608   3.729   6.704  1.5001 -0.9127 -1.4735
   15DG     H22  467   4.602   3.556   6.735 -1.3422  0.1008 -1.4698
   15DG      N3  468   4.387   3.509   6.782 -0.0573  0.2969  0.6247
   15DG      C4  469   4.257   3.505   6.820 -0.4216 -0.5809 -0.6522
   15DG     C3'  470   4.207   3.160   7.111  0.1127 -0.0321 -0.0272
   15DG     H3'  471   4.128   3.226   7.147  0.0835 -1.2165  2.2509
   15DG     C2'  472   4.303   3.253   7.037 -0.1733  0.3791  0.1196
   15DG    H2'1  473   4.310   3.349   7.089  1.0194  1.1709 -1.4172
   15DG    H2'2  474   4.400   3.204   7.028  0.1706  0.7446  1.5215
   15DG     O3'  475   4.269   3.095   7.220  0.1764  0.0609 -0.0068
   16DG       P  476   4.322   3.172   7.350 -0.0827  0.0342  0.1156
   16DG     O1P  477   4.366   3.067   7.445 -0.2574 -0.4139 -0.2954
   16DG     O2P  478   4.212   3.260   7.394  0.0087 -0.3008  1.0403
   16DG     O5'  479   4.452   3.258   7.309 -0.2621  0.1406 -0.2329
   16DG     C5'  480   4.582   3.204   7.305 -0.1831  0.2751  0.4017
   16DG    H5'1  481   4.585   3.120   7.236  0.3797  0.3609  0.3188
   16DG    H5'2  482   4.620   3.167   7.401 -0.2109  3.0792  1.6014
   16DG     C4'  483   4.683   3.311   7.264 -0.7790  0.7782  0.2366
   16DG     H4'  484   4.773   3.252   7.250 -0.6020  1.4211 -1.6380
   16DG     O4'  485   4.645   3.380   7.147 -0.4848 -0.3027 -0.5106
   16DG     C1'  486   4.693   3.512   7.150 -0.1626 -0.4244 -0.1328
   16DG     H1'  487   4.759   3.538   7.067  0.8639 -2.3637  0.0154
   16DG      N9  488   4.578   3.604   7.161  0.0706 -0.1464  0.0181
   16DG      C8  489   4.449   3.571   7.192 -0.0144  0.0555 -0.1188
   16DG      H8  490   4.412   3.475   7.226 -0.8586 -0.0889 -1.3687
   16DG      N7  491   4.373   3.677   7.184 -0.2321 -0.1155 -0.3263
   16DG      C5  492   4.452   3.774   7.124 -0.2716 -0.1345 -0.4115
   16DG      C6  493   4.414   3.905   7.082  0.0148  0.1063  0.0700
   16DG      O6  494   4.308   3.966   7.091  0.1432  0.3450 -0.0309
   16DG      N1  495   4.522   3.970   7.023  0.1889 -0.0159  0.2520
   16DG      H1  496   4.511   4.067   6.998 -2.0307 -0.4214 -0.5809
   16DG      C2  497   4.651   3.921   7.026  0.1970 -0.0021  0.1348
   16DG      N2  498   4.742   4.007   6.978 -0.2538  0.2174 -0.3418
   16DG     H21  499   4.723   4.100   6.944  0.3885  0.4190 -0.1613
   16DG     H22  500   4.834   3.993   7.018 -1.1572  2.4678  2.9006
   16DG      N3  501   4.691   3.808   7.086 -0.1487 -0.2301 -0.0547
   16DG      C4  502   4.583   3.735   7.120 -0.1080  0.2049  1.0769
   16DG     C3'  503   4.723   3.413   7.370  0.3079  0.7697 -0.1531
   16DG     H3'  504   4.643   3.436   7.441  2.6163  0.5848  2.7151
   16DG     C2'  505   4.771   3.526   7.280  0.0736  0.6871 -0.3833
   16DG    H2'1  506   4.769   3.620   7.336  3.5786 -0.2054  1.4970
   16DG    H2'2  507   4.878   3.509   7.264 -0.3947 -2.8548 -0.5936
   16DG     O3'  508   4.826   3.369   7.455 -0.3827 -0.1683  0.2196
   17DC       P  509   4.873   3.434   7.594 -0.0081 -0.2323  0.1241
   17DC     O1P  510   5.008   3.384   7.629  0.1424  0.3417  0.3676
   17DC     O2P  511   4.765   3.420   7.694  0.3960  0.2045  0.6300
   17DC     O5'  512   4.895   3.590   7.562  0.2016 -0.4469 -0.7996
   17DC     C5'  513   5.021   3.634   7.516  0.2067 -0.2807 -0.6284
   17DC    H5'1  514   5.047   3.581   7.424 -1.7080 -0.6748 -0.9906
   17DC    H5'2  515   5.096   3.623   7.595 -1.4747 -0.3350  1.0321
   17DC     C4'  516   5.019   3.784   7.486 -0.3956 -0.0887  0.3198
   17DC     H4'  517   5.118   3.808   7.448  0.0483 -0.3214  1.3063
   17DC     O4'  518   4.929   3.815   7.382 -0.2333  0.4497  0.3402
   17DC     C1'  519   4.895   3.952   7.389  0.3673  0.6348 -0.2621
   17DC     H1'  520   4.930   3.998   7.296  0.7784 -0.0439 -0.4510
   17DC      N1  521   4.749   3.962   7.408  0.3821 -0.0546  0.2294
   17DC      C6  522   4.677   3.858   7.459  0.6252 -0.3831 -0.0930
   17DC      H6  523   4.719   3.764   7.493 -1.4901 -1.0763  0.7803
   17DC      C5  524   4.543   3.867   7.469  0.7036  0.8480 -0.0367
   17DC      H5  525   4.489   3.776   7.492 -0.4479  1.0658 -1.6592
   17DC      C4  526   4.478   3.984   7.418 -0.2924  0.4348  0.2554
   17DC      N4  527   4.345   4.002   7.411 -0.2949  0.3289  0.0395
   17DC     H41  528   4.283   3.930   7.447  1.4083 -0.5773  1.3397
   17DC     H42  529   4.312   4.090   7.376  1.1108  0.9389  0.1807
   17DC      N3  530   4.551   4.084   7.366 -0.0922  0.0606 -0.1924
   17DC      C2  531   4.686   4.075   7.360 -0.1052 -0.3718  0.1192
   17DC      O2  532   4.739   4.177   7.316 -0.0018 -0.4034  0.1696
   17DC     C3'  533   4.987   3.876   7.603 -0.3201  0.1971  0.1158
   17DC     H3'  534   4.895   3.842   7.651 -1.8599 -1.2961 -3.5417
   17DC     C2'  535   4.958   4.000   7.519 -0.8935  0.3142  0.4818
   17DC    H2'1  536   4.897   4.077   7.567 -1.4141 -0.0516  0.4189
   17DC    H2'2  537   5.048   4.053   7.487 -1.4964  0.8317 -0.4357
   17DC     O3'  538   5.094   3.887   7.694 -0.0069  0.1838 -0.2471
   18DA       P  539   5.066   3.950   7.840 -0.1620  0.0572 -0.2217
   18DA     O1P  540   5.192   3.953   7.916  0.0630 -0.4162 -0.5716
   18DA     O2P  541   4.951   3.876   7.898  0.2673 -0.2664  0.2238
   18DA     O5'  542   5.011   4.101   7.824 -0.3733 -0.0234 -0.2691
   18DA     C5'  543   5.101   4.203   7.786 -0.4912 -0.0007 -0.4859
   18DA    H5'1  544   5.140   4.190   7.685 -1.7207 -2.2212 -0.7394
   18DA    H5'2  545   5.186   4.196   7.853 -0.8633 -1.1387 -0.1118
   18DA     C4'  546   5.030   4.338   7.793  0.0860  0.2874 -0.0670
   18DA     H4'  547   5.095   4.425   7.787 -0.0413  0.5554  1.9146
   18DA     O4'  548   4.951   4.342   7.675  0.3851 -0.1686 -0.2870
   18DA     C1'  549   4.844   4.433   7.687  0.1762 -0.3909 -0.4663
   18DA     H1'  550   4.852   4.514   7.615  1.1492 -0.2394 -0.2101
   18DA      N9  551   4.717   4.358   7.683  0.1803 -0.4277 -0.0082
   18DA      C8  552   4.700   4.227   7.721 -0.3448 -0.1226  0.8310
   18DA      H8  553   4.789   4.173   7.748  1.8882  2.1916 -1.3233
   18DA      N7  554   4.581   4.178   7.700 -0.2394 -0.1570  0.2868
   18DA      C5  555   4.510   4.292   7.662  0.1853 -0.1137 -0.3855
   18DA      C6  556   4.378   4.324   7.628  0.0685  0.3384  0.4846
   18DA      N6  557   4.277   4.236   7.634  0.5790 -0.2619  0.3314
   18DA     H61  558   4.295   4.137   7.641  1.6404 -0.1953 -1.0256
   18DA     H62  559   4.185   4.267   7.605  0.0886  1.0974  2.9929
   18DA      N1  560   4.337   4.445   7.588  0.0310  0.0825 -0.2531
   18DA      C2  561   4.433   4.535   7.575 -0.2105  0.3370 -0.2932
   18DA      H2  562   4.399   4.631   7.538  0.7964  0.4480 -0.9821
   18DA      N3  563   4.560   4.527   7.610 -0.2630 -0.3459 -0.2429
   18DA      C4  564   4.591   4.402   7.651  0.2918 -0.1613 -0.0855
   18DA     C3'  565   4.941   4.381   7.909 -0.1288  0.0360 -0.1370
   18DA     H3'  566   4.880   4.295   7.937  0.0473 -0.8328 -2.2052
   18DA     C2'  567   4.853   4.481   7.832 -0.0384 -0.1793 -0.5217
   18DA    H2'1  568   4.750   4.486   7.866 -0.6678  0.7370 -2.4187
   18DA    H2'2  569   4.893   4.581   7.847 -2.2641  0.6163  0.4257
   18DA     O3'  570   5.009   4.445   8.014 -0.4309  0.2596 -0.0728
   19DT       P  571   4.949   4.482   8.158  0.0430  0.0510  0.1823
   19DT     O1P  572   5.053   4.546   8.241  0.2864 -0.5175  0.3134
   19DT     O2P  573   4.882   4.362   8.213  0.3077 -0.3048 -0.2703
   19DT     O5'  574   4.834   4.594   8.139  0.3305  0.3790  0.3509
   19DT     C5'  575   4.857   4.721   8.083  0.0343 -0.0566 -0.7879
   19DT    H5'1  576   4.939   4.716   8.011  0.9638 -2.4132  0.2937
   19DT    H5'2  577   4.895   4.787   8.161  0.7549 -0.6492 -0.6260
   19DT     C4'  578   4.726   4.789   8.046 -0.3564 -0.4942 -0.2265
   19DT     H4'  579   4.749   4.892   8.018  1.5470 -0.3146  1.6975
   19DT     O4'  580   4.654   4.725   7.942 -0.2139 -0.2943 -0.4484
   19DT     C1'  581   4.516   4.744   7.965 -0.1758 -0.1011 -0.3761
   19DT     H1'  582   4.486   4.803   7.879  2.0058 -0.9690 -1.8276
   19DT      N1  583   4.444   4.616   7.961  0.1104 -0.2668 -0.2034
   19DT      C6  584   4.492   4.507   8.029 -0.2704  0.2901  0.9932
   19DT      H6  585   4.587   4.514   8.079 -0.7789  0.6757  1.9081
   19DT      C5  586   4.435   4.385   8.016 -0.3062  0.3440  0.6361
   19DT      C7  587   4.498   4.264   8.081 -0.0261  0.0505 -0.1717
   19DT     H71  588   4.431   4.240   8.163  0.3202 -0.4598 -0.0323
   19DT     H72  589   4.502   4.179   8.013 -0.0522  0.0602 -0.1850
   19DT     H73  590   4.596   4.289   8.121 -0.4896  0.9523  0.4313
   19DT      C4  591   4.308   4.374   7.948 -0.1178 -0.1954  0.3630
   19DT      O4  592   4.243   4.270   7.943 -0.1168 -0.1721 -0.1823
   19DT      N3  593   4.254   4.492   7.897 -0.1352 -0.1834  0.4089
   19DT      H3  594   4.164   4.480   7.853  0.0195  2.4406 -0.8179
   19DT      C2  595   4.318   4.615   7.904  0.0273 -0.2430 -0.0220
   19DT      O2  596   4.259   4.716   7.868  0.0246 -0.3154 -0.2215
   19DT     C3'  597   4.630   4.799   8.164  0.0116 -0.1597  0.0443
   19DT     H3'  598   4.633   4.708   8.223  0.6632  0.2700  0.6979
   19DT     C2'  599   4.494   4.818   8.097  0.2869  0.1458 -0.4350
   19DT    H2'1  600   4.413   4.770   8.152  0.3016  0.0642 -0.4830
   19DT    H2'2  601   4.483   4.925   8.081  1.5115  0.6202  1.5026
   19DT     O3'  602   4.658   4.905   8.254  0.0028 -0.1140 -0.0071
   20DC       P  603   4.626   4.901   8.412 -0.0399  0.0465 -0.0120
   20DC     O1P  604   4.676   5.025   8.476  0.4581 -0.1006 -0.1072
   20DC     O2P  605   4.670   4.773   8.471  0.0954  0.2518  0.3377
   20DC     O5'  606   4.466   4.907   8.416 -0.0619 -0.0431 -0.6440
   20DC     C5'  607   4.394   5.025   8.387  0.1469  0.2415 -0.0195
   20DC    H5'1  608   4.446   5.076   8.306 -1.4466  0.4717 -0.9330
   20DC    H5'2  609   4.395   5.087   8.476  0.3058  0.9205 -0.4820
   20DC     C4'  610   4.247   4.998   8.358  0.2714 -0.3059 -0.1634
   20DC     H4'  611   4.200   5.092   8.327  0.2704 -0.1685  0.2394
   20DC     O4'  612   4.222   4.908   8.253 -0.2147  0.1282 -0.4255
   20DC     C1'  613   4.094   4.854   8.278 -0.0833  0.1899  0.4082
   20DC     H1'  614   4.018   4.896   8.211 -0.1223  0.2593  0.4958
   20DC      N1  615   4.103   4.708   8.261  0.1967  0.2865 -0.3052
   20DC      C6  616   4.219   4.638   8.273 -0.0309  0.0079  0.2862
   20DC      H6  617   4.310   4.684   8.309 -0.4515  2.1193 -1.1725
   20DC      C5  618   4.222   4.505   8.248  0.7182  0.1462 -0.3883
   20DC      H5  619   4.306   4.442   8.270  0.1104 -1.5321 -2.5361
   20DC      C4  620   4.097   4.445   8.210  0.3102  0.2571  0.7449
   20DC      N4  621   4.080   4.312   8.208 -0.0873  0.3172  0.1237
   20DC     H41  622   4.164   4.256   8.213 -0.5656 -0.3603  0.5958
   20DC     H42  623   3.995   4.267   8.176  1.6872 -2.6178 -0.8453
   20DC      N3  624   3.982   4.513   8.200  0.3500  0.1187 -0.8657
   20DC      C2  625   3.983   4.646   8.230  0.3433 -0.0138 -0.2698
   20DC      O2  626   3.876   4.704   8.215  0.5774  0.4029 -0.3329
   20DC     C3'  627   4.176   4.939   8.479 -0.2866  0.3978 -0.1370
   20DC     H3'  628   4.231   4.859   8.530  0.2181  1.5129  1.1067
   20DC     C2'  629   4.043   4.895   8.416 -0.4526  0.3794  0.2188
   20DC    H2'1  630   3.998   4.812   8.469 -2.9625  1.0577 -0.7343
   20DC    H2'2  631   3.979   4.982   8.403  0.9799  1.5195  0.4807
   20DC     O3'  632   4.133   5.038   8.570 -0.2603  0.2149  0.0760
   21DT       P  633   4.077   5.012   8.718 -0.2626  0.0955  0.0552
   21DT     O1P  634   4.038   5.143   8.775 -0.1735  0.1174  0.0663
   21DT     O2P  635   4.178   4.933   8.792 -0.1940  0.0010 -0.1408
   21DT     O5'  636   3.942   4.927   8.696  0.0017 -0.4188  0.3925
   21DT     C5'  637   3.824   4.995   8.662  0.1894 -0.4802 -0.4178
   21DT    H5'1  638   3.844   5.047   8.569 -0.3069  0.8172  0.1669
   21DT    H5'2  639   3.799   5.067   8.741  2.1743 -0.8036  0.5469
   21DT     C4'  640   3.695   4.919   8.631 -0.3283  0.2467 -0.1108
   21DT     H4'  641   3.613   4.988   8.618  0.0163  0.5425 -0.7664
   21DT     O4'  642   3.711   4.836   8.517  0.3049  0.7405 -0.3846
   21DT     C1'  643   3.636   4.719   8.535  0.6222  0.6322  0.2943
   21DT     H1'  644   3.554   4.711   8.464 -0.6243  0.7112  1.6669
   21DT      N1  645   3.728   4.604   8.527 -0.1485  0.0342 -0.1676
   21DT      C6  646   3.855   4.610   8.578 -0.3740 -0.4861  0.4747
   21DT      H6  647   3.884   4.700   8.629 -2.6954  0.6600 -0.0860
   21DT      C5  648   3.944   4.509   8.569  0.3199  0.1923 -0.4786
   21DT      C7  649   4.082   4.532   8.625  0.1201  0.8068 -0.2375
   21DT     H71  650   4.121   4.433   8.645 -3.3993 -0.8376 -0.7146
   21DT     H72  651   4.150   4.589   8.562  1.5002 -0.0476  0.4383
   21DT     H73  652   4.065   4.591   8.715 -0.6772  0.6397 -0.2670
   21DT      C4  653   3.901   4.378   8.524 -0.2867  0.1767  0.1317
   21DT      O4  654   3.971   4.280   8.503 -0.6079 -0.0417  0.0711
   21DT      N3  655   3.767   4.375   8.486 -0.2539 -0.1361  0.0369
   21DT      H3  656   3.742   4.287   8.444 -0.5871 -0.0954  0.1500
   21DT      C2  657   3.680   4.483   8.481  0.0675  0.1007 -0.5678
   21DT      O2  658   3.566   4.463   8.439 -0.0687  0.4032 -0.3487
   21DT     C3'  659   3.653   4.828   8.746 -0.2319  0.3796  0.0290
   21DT     H3'  660   3.740   4.769   8.778  0.3487  0.3368 -1.5643
   21DT     C2'  661   3.566   4.729   8.670  0.5935 -0.6530  0.3930
   21DT    H2'1  662   3.563   4.632   8.719  1.5312 -0.5085  0.7451
   21DT    H2'2  663   3.463   4.766   8.666 -0.1221 -2.4721  1.0876
   21DT     O3'  664   3.578   4.895   8.845  0.3152  0.5237  0.3580
   22DG       P  665   3.542   4.818   8.982 -0.3516 -0.0169 -0.1092
   22DG     O1P  666   3.469   4.911   9.071  0.5495  0.6785 -0.0838
   22DG     O2P  667   3.672   4.768   9.032 -0.1415  0.2934 -0.3394
   22DG     O5'  668   3.454   4.684   8.969 -0.3604 -0.0438  0.2119
   22DG     C5'  669   3.314   4.676   8.951 -0.3083 -0.0358 -0.2137
   22DG    H5'1  670   3.272   4.748   8.881  2.5031  2.4906  0.4587
   22DG    H5'2  671   3.277   4.710   9.047 -0.2717 -0.1756 -0.1504
   22DG     C4'  672   3.253   4.541   8.916 -0.0539 -0.1505 -0.2179
   22DG     H4'  673   3.148   4.565   8.898 -0.4726 -0.8958  1.0691
   22DG     O4'  674   3.303   4.488   8.796  0.6698  0.2033 -0.0780
   22DG     C1'  675   3.328   4.350   8.811  0.5755  0.1857 -0.0775
   22DG     H1'  676   3.274   4.296   8.733 -0.7870 -2.2103  2.3755
   22DG      N9  677   3.468   4.308   8.793  0.5521 -0.2387  0.6932
   22DG      C8  678   3.586   4.372   8.822  0.3004  0.2407  0.6723
   22DG      H8  679   3.578   4.470   8.867 -0.3014 -0.1247  1.3988
   22DG      N7  680   3.694   4.308   8.787  0.0665 -0.0387  0.4584
   22DG      C5  681   3.646   4.183   8.750  0.0353  0.3295 -0.7925
   22DG      C6  682   3.711   4.061   8.716 -0.1507  0.1169 -0.3891
   22DG      O6  683   3.830   4.034   8.706 -0.2964 -0.5396 -0.3848
   22DG      N1  684   3.627   3.951   8.717 -0.1234  0.0965 -0.1487
   22DG      H1  685   3.673   3.863   8.701 -0.0187  0.3779 -1.5587
   22DG      C2  686   3.489   3.962   8.718 -0.1572 -0.3418  0.6186
   22DG      N2  687   3.419   3.849   8.700 -0.2741 -0.2636  0.5830
   22DG     H21  688   3.468   3.761   8.696  0.0783 -0.0748  0.7786
   22DG     H22  689   3.319   3.852   8.717  0.1069 -1.2206  3.6560
   22DG      N3  690   3.425   4.077   8.743  0.0011 -0.1492  0.1492
   22DG      C4  691   3.509   4.180   8.764  0.1303 -0.2367  0.0667
   22DG     C3'  692   3.272   4.435   9.024 -0.0756 -0.2506 -0.3124
   22DG     H3'  693   3.367   4.452   9.075  0.4579 -1.7659 -0.7309
   22DG     C2'  694   3.266   4.306   8.943 -0.8127  0.0575 -0.7580
   22DG    H2'1  695   3.319   4.217   8.977 -0.1606  1.0768  1.0116
   22DG    H2'2  696   3.163   4.275   8.926 -0.1904 -2.6613  0.0022
   22DG     O3'  697   3.167   4.441   9.119  0.0782  0.7814 -0.1930
   23DC       P  698   3.193   4.408   9.274  0.0423 -0.3611 -0.4198
   23DC     O1P  699   3.071   4.429   9.356  0.2320 -0.0346 -0.2204
   23DC     O2P  700   3.319   4.474   9.315 -0.1600  0.1694 -0.6475
   23DC     O5'  701   3.215   4.248   9.266  0.6228 -0.3274  0.3657
   23DC     C5'  702   3.104   4.164   9.242  0.6544 -0.1999 -0.2317
   23DC    H5'1  703   3.041   4.205   9.163 -0.0544 -0.3739  0.2357
   23DC    H5'2  704   3.049   4.167   9.336  0.7275  3.0312 -0.2043
   23DC     C4'  705   3.156   4.021   9.222 -0.1386 -0.5410  0.1179
   23DC     H4'  706   3.067   3.959   9.216 -0.0817 -0.4894 -2.0850
   23DC     O4'  707   3.235   4.014   9.106 -0.1711 -0.4028  0.0864
   23DC     C1'  708   3.320   3.902   9.114 -0.0381 -0.3298 -0.2492
   23DC     H1'  709   3.291   3.833   9.034 -0.7173  0.4556 -0.6979
   23DC      N1  710   3.463   3.927   9.092 -0.0397 -0.2220 -0.1383
   23DC      C6  711   3.509   4.055   9.110 -0.0101 -0.3860  1.0365
   23DC      H6  712   3.438   4.131   9.139  2.2785  2.7272 -1.0293
   23DC      C5  713   3.639   4.085   9.091 -0.2313  0.0994  0.2610
   23DC      H5  714   3.676   4.186   9.105  0.3465 -0.2921  1.6316
   23DC      C4  715   3.727   3.978   9.057  0.0062  0.5150 -0.4418
   23DC      N4  716   3.861   3.989   9.048  0.1471 -0.0183  0.8105
   23DC     H41  717   3.910   4.075   9.068  1.5111 -0.7153  0.5513
   23DC     H42  718   3.905   3.904   9.017 -2.2486 -0.6992 -1.1056
   23DC      N3  719   3.686   3.851   9.048  0.3211  0.3646  0.2033
   23DC      C2  720   3.554   3.826   9.068  0.3807  0.0639  0.2226
   23DC      O2  721   3.520   3.709   9.054  0.0941  0.2024 -0.2773
   23DC     C3'  722   3.242   3.962   9.334 -0.0629 -0.6445  0.0034
   23DC     H3'  723   3.321   4.031   9.361 -1.3138  0.9538 -0.2717
   23DC     C2'  724   3.301   3.845   9.255  0.4129 -0.2859 -0.1723
   23DC    H2'1  725   3.394   3.808   9.298 -0.2482  0.2341  1.8011
   23DC    H2'2  726   3.222   3.771   9.248 -0.8014  1.1017 -3.1529
   23DC     O3'  727   3.166   3.911   9.442 -0.1214 -0.0459  0.2489
   24DG       P  728   3.229   3.859   9.580  0.2620  0.1698  0.1579
   24DG     O1P  729   3.117   3.837   9.674 -0.1224 -0.1624 -0.3750
   24DG     O2P  730   3.332   3.960   9.614  0.3800  0.1208 -0.0517
   24DG     O5'  731   3.302   3.721   9.541 -0.6806 -0.0930 -0.6908
   24DG     C5'  732   3.232   3.601   9.512 -0.0220 -0.6118 -0.1466
   24DG    H5'1  733   3.170   3.623   9.426  0.1581  1.9977  0.2995
   24DG    H5'2  734   3.178   3.580   9.604  0.3657 -1.1253 -0.0314
   24DG     C4'  735   3.327   3.485   9.485  0.5564 -0.1744 -0.0238
   24DG     H4'  736   3.272   3.391   9.481  2.1629 -1.2102  0.8529
   24DG     O4'  737   3.387   3.498   9.358 -0.5173 -0.2741 -0.5514
   24DG     C1'  738   3.517   3.446   9.372 -0.5328 -0.1383  0.1116
   24DG     H1'  739   3.533   3.364   9.302 -2.9088 -0.8832  0.3572
   24DG      N9  740   3.618   3.552   9.350 -0.2207 -0.4812 -0.1253
   24DG      C8  741   3.610   3.681   9.396 -0.2681 -0.3469 -0.5045
   24DG      H8  742   3.534   3.717   9.464  1.4935  2.3754  0.1960
   24DG      N7  743   3.717   3.750   9.367 -0.2145  0.0863  0.6807
   24DG      C5  744   3.806   3.659   9.311 -0.0249  0.4389  0.3971
   24DG      C6  745   3.942   3.667   9.271 -0.2270 -0.3692 -0.4763
   24DG      O6  746   4.006   3.769   9.251 -0.1396 -0.2785  0.2487
   24DG      N1  747   3.995   3.544   9.233  0.5161 -0.3504  0.4867
   24DG      H1  748   4.079   3.542   9.176  1.3177 -0.6463  1.6323
   24DG      C2  749   3.928   3.424   9.240 -0.0062 -0.0900  0.0153
   24DG      N2  750   3.996   3.318   9.193  0.6140  0.3215 -0.0299
   24DG     H21  751   4.094   3.335   9.175  0.5901  1.2594  0.6182
   24DG     H22  752   3.946   3.234   9.169  0.4475  0.5290 -0.4141
   24DG      N3  753   3.796   3.418   9.261  0.0300  0.4148  0.4148
   24DG      C4  754   3.745   3.537   9.300 -0.2623  0.6400 -0.6088
   24DG     C3'  755   3.431   3.460   9.594  0.3918  0.6305  0.3243
   24DG     H3'  756   3.455   3.558   9.636 -1.4099  0.5567  1.6725
   24DG     C2'  757   3.541   3.392   9.513 -0.0841  0.0915  0.1286
   24DG    H2'1  758   3.636   3.426   9.552 -0.4072  0.7762  0.3349
   24DG    H2'2  759   3.551   3.283   9.511  0.0394  0.1054 -1.4505
   24DG     O3'  760   3.386   3.371   9.693 -0.0236  0.6189  0.1294
   25DC       P  761   3.456   3.360   9.838 -0.1072 -0.0175  0.1226
   25DC     O1P  762   3.371   3.262   9.909 -0.1255  0.2667  0.4918
   25DC     O2P  763   3.465   3.495   9.898  0.1438  0.3444 -0.7148
   25DC     O5'  764   3.602   3.297   9.809  0.0058  0.1695  0.2860
   25DC     C5'  765   3.622   3.159   9.790  0.2592  0.1263  0.8314
   25DC    H5'1  766   3.553   3.127   9.711 -1.2569  1.2764  1.6365
   25DC    H5'2  767   3.594   3.096   9.874 -1.6098 -1.5603 -0.9343
   25DC     C4'  768   3.765   3.133   9.746  0.0337  0.0215  0.1461
   25DC     H4'  769   3.789   3.029   9.722 -0.4517  0.1506 -0.9550
   25DC     O4'  770   3.799   3.210   9.633 -0.1774  0.1110  0.1435
   25DC     C1'  771   3.940   3.226   9.637 -0.1745  0.0568  0.2755
   25DC     H1'  772   3.983   3.164   9.558 -2.4048 -1.2017 -0.0452
   25DC      N1  773   3.967   3.370   9.621  0.0983 -0.0534 -0.2848
   25DC      C6  774   3.882   3.465   9.668  0.2404 -0.1394  0.1538
   25DC      H6  775   3.797   3.437   9.729  0.1126  0.0375  0.0600
   25DC      C5  776   3.902   3.594   9.632 -0.5756 -0.0303  0.0532
   25DC      H5  777   3.838   3.679   9.649 -0.0049  1.0972 -2.9491
   25DC      C4  778   4.024   3.632   9.568 -0.3753  0.2152  0.5778
   25DC      N4  779   4.060   3.761   9.558  0.9944 -0.1588  0.4868
   25DC     H41  780   3.985   3.825   9.579 -0.6539 -1.8401 -0.0565
   25DC     H42  781   4.128   3.775   9.485  2.3599  0.7345  1.8620
   25DC      N3  782   4.115   3.537   9.542 -0.3054  0.3538  0.3162
   25DC      C2  783   4.081   3.406   9.551  0.2563  0.1897  0.0950
   25DC      O2  784   4.160   3.325   9.504  0.0930  0.0485  0.0603
   25DC     C3'  785   3.863   3.176   9.855 -0.2206  0.0403  0.3682
   25DC     H3'  786   3.834   3.276   9.887 -0.0446 -0.0120  0.6883
   25DC     C2'  787   3.992   3.180   9.772 -0.3063 -0.2650  0.2173
   25DC    H2'1  788   4.070   3.242   9.815 -1.8560  0.0098  2.8824
   25DC    H2'2  789   4.036   3.081   9.763 -1.7661 -0.8008 -1.8471
   25DC     O3'  790   3.871   3.077   9.955  0.0335  0.0795  0.3877
   25DC     H3T  791   3.933   3.111  10.019 -1.2619  2.4825  0.4959
   26G      O5'  792   5.106   3.935   9.164  0.0202  0.1803  0.2542
   26G      H5T  793   5.076   3.962   9.251  1.7247 -0.8678  1.2286
   26G      C5'  794   5.174   3.814   9.187 -0.7281 -0.3660 -0.3215
   26G     H5'1  795   5.238   3.830   9.274 -0.6937  0.3516 -0.4738
   26G     H5'2  796   5.226   3.788   9.095  0.9432 -1.1541  0.7800
   26G      C4'  797   5.091   3.694   9.230 -0.4953 -0.3439  0.2006
   26G      H4'  798   5.155   3.615   9.270  0.3529 -0.3273 -1.0935
   26G      O4'  799   5.001   3.740   9.329 -0.7590  0.2805 -0.3229
   26G      C1'  800   4.889   3.655   9.339 -0.0187 -0.6573  0.1658
   26G      H1'  801   4.905   3.594   9.428 -1.1163  0.2428  1.0215
   26G       N9  802   4.760   3.725   9.351  0.2507 -0.0681 -0.3492
   26G       C8  803   4.741   3.861   9.344 -0.2496 -0.1073  0.1416
   26G       H8  804   4.819   3.932   9.320 -2.1266  1.9639 -0.1214
   26G       N7  805   4.616   3.889   9.369 -0.4263 -0.6992 -0.0616
   26G       C5  806   4.553   3.766   9.383 -0.2532 -0.8455 -0.5530
   26G       C6  807   4.417   3.734   9.407 -0.1808 -0.4788  0.3656
   26G       O6  808   4.322   3.811   9.423 -0.2842 -0.4845 -0.2277
   26G       N1  809   4.388   3.599   9.425 -0.7152 -0.3838  0.2284
   26G       H1  810   4.292   3.574   9.446 -1.5273  1.1098 -1.4178
   26G       C2  811   4.487   3.504   9.408  0.0128  0.4308 -0.1446
   26G       N2  812   4.442   3.379   9.426  0.4887  0.3294  0.3476
   26G      H21  813   4.345   3.351   9.431  1.0877 -1.8075  0.8654
   26G      H22  814   4.514   3.311   9.409 -1.6105 -1.4274 -2.4222
   26G       N3  815   4.617   3.529   9.390  0.2298 -0.1774  0.5594
   26G       C4  816   4.642   3.662   9.380  0.4970 -0.2465  0.2847
   26G      C3'  817   4.987   3.651   9.127  0.0584 -0.2998 -0.3786
   26G      H3'  818   4.946   3.741   9.082  0.9771 -0.3909 -1.4241
   26G      C2'  819   4.892   3.568   9.214  0.5533 -0.4448  0.0303
   26G     H2'1  820   4.793   3.553   9.169  0.3567 -0.5037  0.4848
   26G      O2'  821   4.962   3.450   9.245  0.4723 -0.4822  0.0701
   26G     HO'2  822   5.023   3.453   9.171  0.2999 -0.5694 -0.0769
   26G      O3'  823   5.055   3.575   9.030  0.0805 -0.5052 -0.2024
   27C        P  824   5.000   3.561   8.880 -0.2864 -0.0164 -0.1133
   27C      O1P  825   5.107   3.488   8.809 -0.0233  0.2069  0.0581
   27C      O2P  826   4.952   3.692   8.830  0.5123  0.3743  0.1327
   27C      O5'  827   4.866   3.474   8.903  0.0932 -0.6801 -0.3974
   27C      C5'  828   4.865   3.335   8.923  0.2299 -0.5460  0.5783
   27C     H5'1  829   4.945   3.304   8.990  0.7989 -1.3390 -0.4432
   27C     H5'2  830   4.888   3.287   8.828  2.4548  0.3314  0.6320
   27C      C4'  831   4.732   3.272   8.965  0.0780 -0.4325  0.2679
   27C      H4'  832   4.750   3.166   8.984  3.9592  0.0294 -0.1136
   27C      O4'  833   4.677   3.331   9.081 -0.5004  0.0160 -0.2281
   27C      C1'  834   4.537   3.318   9.076 -0.4419 -0.9018  0.4098
   27C      H1'  835   4.502   3.258   9.160  0.0112 -0.3214  1.0265
   27C       N1  836   4.462   3.445   9.069 -0.1934 -0.7833 -0.1358
   27C       C6  837   4.526   3.563   9.044 -0.6671 -0.5788 -0.3999
   27C       H6  838   4.630   3.568   9.014  0.1307  1.5893  2.2796
   27C       C5  839   4.461   3.681   9.048  0.2553 -0.0687 -0.1508
   27C       H5  840   4.515   3.773   9.032 -1.0111  0.8068  0.3954
   27C       C4  841   4.323   3.675   9.085  0.3955  0.1584  0.4224
   27C       N4  842   4.252   3.788   9.095 -0.5852 -0.3073 -1.0613
   27C      H41  843   4.306   3.873   9.083 -1.3912  0.7214  1.6686
   27C      H42  844   4.155   3.789   9.125 -0.7471  1.8077 -1.4683
   27C       N3  845   4.255   3.563   9.114 -0.3349  0.3434 -0.5477
   27C       C2  846   4.329   3.450   9.106  0.1156  0.5170  0.9131
   27C       O2  847   4.269   3.346   9.131 -0.2287  0.3406 -0.5387
   27C      C3'  848   4.625   3.277   8.856  0.2939 -0.0326  0.0722
   27C      H3'  849   4.603   3.376   8.817 -0.1607  1.0463  2.8838
   27C      C2'  850   4.508   3.242   8.947  0.1143 -0.1168 -0.1880
   27C     H2'1  851   4.411   3.275   8.911  0.4103  1.0449  0.0512
   27C      O2'  852   4.511   3.103   8.970 -0.1508 -0.0677  0.1585
   27C     HO'2  853   4.560   3.071   8.894 -0.2014 -0.3251  0.2324
   27C      O3'  854   4.648   3.175   8.761 -0.3014 -0.1165  0.0168
   28G        P  855   4.575   3.176   8.617  0.1807  0.1058 -0.2283
   28G      O1P  856   4.625   3.055   8.549  0.3724  0.1284 -0.1291
   28G      O2P  857   4.611   3.304   8.552 -0.2999  0.0990 -0.5160
   28G      O5'  858   4.415   3.170   8.634  0.2106  0.3000  0.1369
   28G      C5'  859   4.352   3.045   8.654  0.0058  0.4176  0.2388
   28G     H5'1  860   4.403   2.993   8.736  0.3633 -0.9807 -0.8262
   28G     H5'2  861   4.365   2.982   8.566  1.1054 -2.7437  2.4707
   28G      C4'  862   4.207   3.059   8.699 -0.1260  0.1883 -0.1090
   28G      H4'  863   4.175   2.956   8.715 -2.3473  0.7383 -0.7122
   28G      O4'  864   4.202   3.136   8.817  0.5592 -0.0609  0.0892
   28G      C1'  865   4.078   3.202   8.819  0.5142 -0.1399 -0.1361
   28G      H1'  866   4.023   3.173   8.908  1.4386 -1.6952 -0.0382
   28G       N9  867   4.099   3.348   8.822  0.9318 -0.1987 -0.1709
   28G       C8  868   4.197   3.427   8.768  0.7099  0.0160 -0.2645
   28G       H8  869   4.290   3.395   8.722  0.8251  1.8404 -1.4254
   28G       N7  870   4.175   3.554   8.786  0.4849 -0.1665  0.8335
   28G       C5  871   4.046   3.562   8.839  0.2403 -0.7133  0.3419
   28G       C6  872   3.969   3.669   8.892 -0.0671 -0.2929 -0.9194
   28G       O6  873   4.001   3.783   8.923 -0.5565 -0.2675 -0.4954
   28G       N1  874   3.841   3.635   8.934  0.0997  0.1804  0.0089
   28G       H1  875   3.774   3.709   8.951  0.7324  0.9415 -0.7489
   28G       C2  876   3.799   3.503   8.933  0.0370  0.1983  0.3925
   28G       N2  877   3.668   3.490   8.959 -0.1208  0.4956 -0.2390
   28G      H21  878   3.609   3.570   8.974 -1.7243 -0.2466 -2.1757
   28G      H22  879   3.615   3.406   8.938 -0.4670  0.9474 -1.2101
   28G       N3  880   3.872   3.400   8.891  0.1542  0.3477  0.2297
   28G       C4  881   3.997   3.435   8.853  0.3640 -0.8286 -0.2332
   28G      C3'  882   4.113   3.125   8.599  0.1528  0.1166 -0.4196
   28G      H3'  883   4.148   3.220   8.559 -0.7718  1.3036  1.4324
   28G      C2'  884   3.999   3.162   8.694  0.3688 -0.3136  0.0108
   28G     H2'1  885   3.933   3.238   8.654 -0.4710 -0.6821  0.6721
   28G      O2'  886   3.921   3.048   8.721 -0.0594  0.0348  0.2399
   28G     HO'2  887   3.921   3.000   8.638  1.7255  2.8991 -1.5801
   28G      O3'  888   4.074   3.034   8.499 -0.0943 -0.2152 -0.0238
   29C        P  889   4.038   3.081   8.349  0.1493 -0.0768 -0.0386
   29C      O1P  890   4.019   2.955   8.274 -1.0289  0.1238 -0.1031
   29C      O2P  891   4.139   3.180   8.304  0.1741 -0.1563 -0.1571
   29C      O5'  892   3.895   3.150   8.375  0.1358 -0.4738  0.9904
   29C      C5'  893   3.777   3.074   8.391 -0.4558  0.0971 -0.4291
   29C     H5'1  894   3.799   2.995   8.463 -1.1618 -0.7471 -1.1169
   29C     H5'2  895   3.754   3.023   8.298  0.3171 -1.9317  0.4277
   29C      C4'  896   3.659   3.153   8.448 -0.3749 -0.2082  0.1717
   29C      H4'  897   3.580   3.082   8.472 -1.2558  0.9063  0.6091
   29C      O4'  898   3.706   3.234   8.554  0.0215  0.1345 -0.2624
   29C      C1'  899   3.630   3.351   8.565 -0.2963 -0.0539 -0.4303
   29C      H1'  900   3.577   3.356   8.660 -0.0658  1.3317 -0.3446
   29C       N1  901   3.712   3.474   8.561 -0.3661  0.0425  0.7319
   29C       C6  902   3.839   3.475   8.512 -0.6032  0.2450  0.1107
   29C       H6  903   3.878   3.387   8.462 -0.4980  0.2480  0.1886
   29C       C5  904   3.920   3.581   8.529 -0.2011 -0.0752  0.1985
   29C       H5  905   4.022   3.576   8.492 -0.9249 -0.0763 -1.9051
   29C       C4  906   3.861   3.697   8.590  0.6307  0.3879  0.1402
   29C       N4  907   3.936   3.806   8.610  0.2685  0.6544  0.0416
   29C      H41  908   4.030   3.808   8.573  0.2229 -0.2573 -0.1521
   29C      H42  909   3.892   3.887   8.650  1.2676  1.3910 -0.3039
   29C       N3  910   3.734   3.702   8.629  0.4924 -0.2688 -0.2048
   29C       C2  911   3.656   3.593   8.605 -0.4875  0.4908 -0.5793
   29C       O2  912   3.540   3.597   8.644 -0.2191  0.4862  0.2321
   29C      C3'  913   3.613   3.257   8.347  0.6250 -0.1192 -0.2058
   29C      H3'  914   3.699   3.301   8.296 -1.3412  1.0735 -2.6974
   29C      C2'  915   3.533   3.338   8.448 -0.1266 -0.4516 -0.5274
   29C     H2'1  916   3.510   3.437   8.407 -1.6899 -0.6383 -0.1728
   29C      O2'  917   3.415   3.280   8.498  0.0574 -0.1406  0.2776
   29C     HO'2  918   3.362   3.355   8.526 -0.4087 -0.1708 -0.4771
   29C      O3'  919   3.521   3.191   8.263 -0.0259  0.3859  0.1017
   30A        P  920   3.488   3.260   8.121  0.2099  0.1551 -0.0666
   30A      O1P  921   3.385   3.176   8.056  0.3582 -0.5360  0.5755
   30A      O2P  922   3.613   3.290   8.049  0.3576  0.1020  0.1646
   30A      O5'  923   3.414   3.401   8.144 -0.0795  0.0952 -0.6137
   30A      C5'  924   3.283   3.402   8.199 -0.1613  0.2974 -0.8136
   30A     H5'1  925   3.284   3.335   8.285  0.6050  0.6883 -0.5011
   30A     H5'2  926   3.225   3.350   8.122 -0.8997 -1.4687  0.8608
   30A      C4'  927   3.231   3.539   8.243 -0.0790  0.0920 -0.0629
   30A      H4'  928   3.130   3.533   8.283  0.8876 -2.8037  2.3563
   30A      O4'  929   3.313   3.588   8.346  0.4824 -0.1604 -0.3787
   30A      C1'  930   3.322   3.727   8.323 -0.4181 -0.0358 -0.0323
   30A      H1'  931   3.275   3.776   8.408 -1.8872 -1.9588  0.3499
   30A       N9  932   3.461   3.775   8.314 -0.4032  0.0537  0.6390
   30A       C8  933   3.573   3.700   8.286 -0.5179 -0.1070  0.6093
   30A       H8  934   3.568   3.598   8.253 -0.0230 -0.2315  0.9217
   30A       N7  935   3.682   3.769   8.302 -0.5003  0.1389 -0.4804
   30A       C5  936   3.639   3.896   8.338  0.0452  0.1328  0.2119
   30A       C6  937   3.705   4.010   8.386  0.1151 -0.2262  0.9955
   30A       N6  938   3.837   4.028   8.399  0.1864 -0.0640  0.0976
   30A      H61  939   3.906   3.959   8.376  2.2391  2.2589 -1.2463
   30A      H62  940   3.869   4.120   8.428 -0.8870  0.6241 -0.8017
   30A       N1  941   3.635   4.117   8.427 -0.2084  0.0729 -0.2986
   30A       C2  942   3.503   4.107   8.420 -0.1926 -0.1600 -0.2725
   30A       H2  943   3.453   4.193   8.462  2.1063  0.4730  1.3684
   30A       N3  944   3.426   4.004   8.388 -0.1137 -0.5345  0.7401
   30A       C4  945   3.502   3.904   8.337  0.0448  0.0773 -0.2407
   30A      C3'  946   3.232   3.639   8.127  0.1374 -0.0073 -0.1493
   30A      H3'  947   3.328   3.633   8.076  0.8784  0.9628  1.0614
   30A      C2'  948   3.234   3.770   8.205  0.2447  0.1755 -0.4564
   30A     H2'1  949   3.281   3.850   8.149  3.2656  0.7214  2.5524
   30A      O2'  950   3.106   3.800   8.258  0.2083 -0.7858  0.0317
   30A     HO'2  951   3.040   3.759   8.203 -0.8286 -0.6086  1.1132
   30A      O3'  952   3.128   3.640   8.032 -0.0367  0.5303  0.0449
   31G        P  953   3.136   3.713   7.889 -0.0782  0.2206 -0.1151
   31G      O1P  954   3.010   3.685   7.815 -0.1100  0.2816 -0.0836
   31G      O2P  955   3.264   3.675   7.826  0.2316  0.9422  0.0809
   31G      O5'  956   3.150   3.869   7.925  0.2528  0.1209  0.1930
   31G      C5'  957   3.042   3.953   7.958  0.3166 -0.0840  0.9365
   31G     H5'1  958   2.993   3.912   8.046 -3.6979  1.7000 -0.2034
   31G     H5'2  959   2.961   3.956   7.885  0.2616  1.7427  1.0126
   31G      C4'  960   3.091   4.095   7.990  0.4436 -0.0459  0.5742
   31G      H4'  961   3.008   4.155   8.027 -0.2996  0.7511 -2.1776
   31G      O4'  962   3.188   4.091   8.092  0.1148  0.2906  0.9016
   31G      C1'  963   3.269   4.205   8.079 -0.1483  0.3753 -0.0979
   31G      H1'  964   3.256   4.279   8.159 -1.6649 -2.1052  2.1290
   31G       N9  965   3.411   4.164   8.075 -0.1915  0.1984  0.1294
   31G       C8  966   3.466   4.041   8.052 -0.1622  0.2977 -0.3412
   31G       H8  967   3.409   3.952   8.028  0.7834 -0.6747  0.8684
   31G       N7  968   3.596   4.035   8.059 -0.1535  0.4917 -0.3486
   31G       C5  969   3.632   4.166   8.090  0.0229  0.3994 -0.1615
   31G       C6  970   3.761   4.225   8.105  0.0009  0.3925  0.0435
   31G       O6  971   3.873   4.174   8.100 -0.1906 -0.0751  0.3466
   31G       N1  972   3.752   4.363   8.116 -0.6320  0.4112 -0.6298
   31G       H1  973   3.841   4.406   8.131 -0.0237 -1.1089  0.4868
   31G       C2  974   3.634   4.433   8.131 -0.8041 -0.0373  0.2397
   31G       N2  975   3.646   4.567   8.126 -0.6001 -0.0481  0.4586
   31G      H21  976   3.737   4.610   8.123 -0.9475  0.6348 -1.7086
   31G      H22  977   3.558   4.614   8.112  0.4654  1.9710  0.1736
   31G       N3  978   3.513   4.378   8.115 -0.8297  0.1760 -0.3458
   31G       C4  979   3.521   4.245   8.092 -0.1320  0.1810 -0.1678
   31G      C3'  980   3.157   4.167   7.873  0.0124 -0.3431  0.1405
   31G      H3'  981   3.238   4.111   7.826  1.3523  1.9534 -0.4521
   31G      C2'  982   3.224   4.278   7.953 -0.1768  0.0677 -0.2679
   31G     H2'1  983   3.306   4.336   7.910 -0.4792 -0.3068 -1.3660
   31G      O2'  984   3.125   4.372   7.988 -0.3155 -0.2127  0.0981
   31G     HO'2  985   3.067   4.371   7.911  1.4814 -1.0731 -1.3158
   31G      O3'  986   3.062   4.225   7.787  0.3180  0.0369  0.0565
   32A        P  987   3.100   4.246   7.632 -0.2141  0.2161 -0.0528
   32A      O1P  988   2.983   4.298   7.558 -0.2798 -0.0758 -0.1537
   32A      O2P  989   3.173   4.127   7.582  0.0883  0.5877 -0.5010
   32A      O5'  990   3.203   4.367   7.657 -0.2660  0.2610 -0.0583
   32A      C5'  991   3.152   4.499   7.666 -0.0482  0.3561 -0.2234
   32A     H5'1  992   3.081   4.499   7.748  0.4569 -0.7608  0.2313
   32A     H5'2  993   3.102   4.534   7.576 -0.3423  0.7600  0.0927
   32A      C4'  994   3.262   4.600   7.697 -0.1876  0.3536  0.2856
   32A      H4'  995   3.219   4.696   7.723 -0.6638 -0.3705  2.3428
   32A      O4'  996   3.343   4.562   7.806  0.5282 -0.1669 -0.4127
   32A      C1'  997   3.475   4.607   7.788  0.4355  0.3098  0.0769
   32A      H1'  998   3.512   4.675   7.865  1.7564  0.6999 -0.8491
   32A       N9  999   3.573   4.497   7.779  0.0546 -0.0805  0.6933
   32A       C8 1000   3.560   4.371   7.728  0.6914  0.0576  0.1890
   32A       H8 1001   3.461   4.346   7.694 -0.3016  3.9387 -0.2397
   32A       N7 1002   3.665   4.293   7.730  0.5237 -0.1851 -0.2751
   32A       C5 1003   3.760   4.381   7.781  0.2040  0.0614 -0.1025
   32A       C6 1004   3.898   4.373   7.806  0.1482 -0.1481  0.1321
   32A       N6 1005   3.973   4.262   7.794  0.2057 -0.0235 -0.6523
   32A      H61 1006   3.927   4.177   7.765  0.1940 -0.1533 -0.2488
   32A      H62 1007   4.073   4.265   7.807  0.4043 -3.0249 -0.7310
   32A       N1 1008   3.965   4.481   7.848 -0.0704 -0.1152  0.4023
   32A       C2 1009   3.904   4.598   7.864  0.3779  0.2547 -0.5197
   32A       H2 1010   3.968   4.679   7.897  0.4834  0.4114 -1.1005
   32A       N3 1011   3.774   4.615   7.846  0.2134 -0.1599  0.2214
   32A       C4 1012   3.709   4.507   7.797  0.1659  0.0573 -0.1972
   32A      C3' 1013   3.358   4.621   7.580 -0.2190 -0.4687  0.1077
   32A      H3' 1014   3.399   4.528   7.539 -2.8977 -2.3410  1.3849
   32A      C2' 1015   3.477   4.681   7.654 -0.4543  0.1608 -0.0196
   32A     H2'1 1016   3.573   4.672   7.603 -0.9522 -0.1621 -0.9275
   32A      O2' 1017   3.451   4.817   7.680 -0.3529  0.0378  0.7511
   32A     HO'2 1018   3.530   4.863   7.709 -0.7924  1.1997  0.1625
   32A      O3' 1019   3.296   4.700   7.481  0.2214 -0.4565 -0.1616
   33U        P 1020   3.358   4.713   7.333 -0.0034  0.7280 -0.1586
   33U      O1P 1021   3.264   4.804   7.263 -0.5836  0.2166 -0.0527
   33U      O2P 1022   3.379   4.581   7.270 -0.1589  0.5168  0.2265
   33U      O5' 1023   3.501   4.785   7.346  0.3280 -0.0314  0.4323
   33U      C5' 1024   3.519   4.920   7.382  0.4363  0.3506 -0.9914
   33U     H5'1 1025   3.468   4.943   7.476 -0.8817 -0.1570 -1.5672
   33U     H5'2 1026   3.487   4.991   7.306  1.2026  1.5237 -0.2496
   33U      C4' 1027   3.667   4.945   7.410  0.2053  0.2187  0.4386
   33U      H4' 1028   3.691   5.042   7.454 -0.5729  1.6032 -2.0147
   33U      O4' 1029   3.710   4.845   7.499  0.2054 -0.0542  0.1336
   33U      C1' 1030   3.851   4.837   7.504  0.1919 -0.2855  0.1473
   33U      H1' 1031   3.877   4.883   7.599  0.9192 -2.8119  1.2767
   33U       N1 1032   3.895   4.696   7.496  0.1865 -0.2822  0.0537
   33U       C6 1033   3.815   4.601   7.439  0.2409 -0.4133  0.1973
   33U       H6 1034   3.720   4.634   7.401  0.1125 -0.1617  0.7267
   33U       C5 1035   3.857   4.473   7.432  0.1632 -0.4143 -0.2789
   33U       H5 1036   3.799   4.398   7.380  0.7709 -1.2859  0.2633
   33U       C4 1037   3.986   4.435   7.486  0.1384 -0.0533  0.0406
   33U       O4 1038   4.043   4.326   7.483 -0.3779 -0.3191 -0.3446
   33U       N3 1039   4.065   4.536   7.537  0.6757 -0.2293 -0.4328
   33U       H3 1040   4.152   4.513   7.584  0.4154  1.6326  1.0875
   33U       C2 1041   4.023   4.668   7.541 -0.0987 -0.5018  0.7411
   33U       O2 1042   4.103   4.755   7.576 -0.0219 -0.1150 -0.3566
   33U      C3' 1043   3.767   4.920   7.297  0.1159  0.5167  0.2922
   33U      H3' 1044   3.741   4.828   7.244  0.2663 -0.8323  2.4424
   33U      C2' 1045   3.895   4.912   7.379  0.0929 -0.0011  0.2839
   33U     H2'1 1046   3.967   4.855   7.321 -1.6379 -0.4750 -1.4960
   33U      O2' 1047   3.947   5.037   7.419  0.0786  0.3626 -0.8073
   33U     HO'2 1048   3.903   5.098   7.359 -2.2991  0.4324  0.8540
   33U      O3' 1049   3.778   5.032   7.212  0.0606  0.0983 -0.2699
   34G        P 1050   3.818   5.014   7.057  0.3321  0.0011 -0.1894
   34G      O1P 1051   3.816   5.153   7.006 -0.0278  0.0806  0.0420
   34G      O2P 1052   3.728   4.915   6.995  0.8173 -0.4127 -0.2401
   34G      O5' 1053   3.971   4.963   7.068  0.1303 -0.4628  0.5029
   34G      C5' 1054   4.077   5.055   7.075 -0.3210  0.0633  0.4814
   34G     H5'1 1055   4.050   5.130   7.150 -1.6832  1.8203 -1.6659
   34G     H5'2 1056   4.083   5.113   6.983  1.9937  1.2946  1.3384
   34G      C4' 1057   4.216   4.999   7.104 -0.0850  0.1531 -0.4597
   34G      H4' 1058   4.280   5.087   7.101  0.2891 -0.1375 -1.1047
   34G      O4' 1059   4.221   4.919   7.220 -0.4091  0.3869 -0.2834
   34G      C1' 1060   4.312   4.814   7.200 -0.2237  0.5199 -0.1369
   34G      H1' 1061   4.380   4.806   7.285  2.0974 -1.0229 -1.9834
   34G       N9 1062   4.247   4.682   7.200  0.4620  0.1735  0.5541
   34G       C8 1063   4.117   4.639   7.189  0.5210  0.1046  0.1447
   34G       H8 1064   4.036   4.707   7.167  1.2937  0.6711 -1.1106
   34G       N7 1065   4.107   4.511   7.211 -0.0033  0.1116 -0.0410
   34G       C5 1066   4.236   4.465   7.238 -0.2366 -0.3503  0.2951
   34G       C6 1067   4.290   4.339   7.274  0.0628 -0.1559  0.5273
   34G       O6 1068   4.229   4.234   7.290 -0.0376 -0.0814  0.6296
   34G       N1 1069   4.429   4.334   7.284  0.1249 -0.0084 -0.1587
   34G       H1 1070   4.472   4.248   7.315  2.6964  0.4643 -2.1275
   34G       C2 1071   4.498   4.451   7.257  0.1142  0.0780  0.1750
   34G       N2 1072   4.629   4.424   7.250  0.1670  0.3817 -0.0426
   34G      H21 1073   4.671   4.333   7.263  1.1135  0.8806  0.4895
   34G      H22 1074   4.690   4.501   7.228  0.0736  0.2779 -0.6643
   34G       N3 1075   4.457   4.576   7.236 -0.1031 -0.0979 -0.4871
   34G       C4 1076   4.323   4.569   7.221 -0.2411 -0.2772  0.7065
   34G      C3' 1077   4.278   4.914   6.993 -0.2642 -0.3080 -0.2112
   34G      H3' 1078   4.203   4.847   6.952 -0.1867 -0.5620  0.0620
   34G      C2' 1079   4.388   4.843   7.071 -0.0230  0.1840 -0.0961
   34G     H2'1 1080   4.421   4.755   7.015  0.2418 -0.7183  1.4329
   34G      O2' 1081   4.497   4.924   7.107 -0.2685  0.0080  1.0774
   34G     HO'2 1082   4.506   4.995   7.043 -0.9365 -0.5957  0.2835
   34G      O3' 1083   4.325   4.996   6.888 -0.2925  0.3538  0.2884
   35C        P 1084   4.342   4.940   6.739  0.0882  0.2397  0.3741
   35C      O1P 1085   4.374   5.057   6.655 -0.3259 -0.0246 -0.1598
   35C      O2P 1086   4.217   4.865   6.711  0.5249 -0.2214 -0.4054
   35C      O5' 1087   4.468   4.839   6.744  0.1706  0.2864 -0.5950
   35C      C5' 1088   4.599   4.889   6.759  0.2849 -0.0743 -0.3930
   35C     H5'1 1089   4.601   4.966   6.836  1.6920 -0.0215 -0.4519
   35C     H5'2 1090   4.625   4.939   6.666  0.9746  1.3760  0.5585
   35C      C4' 1091   4.686   4.769   6.794  0.4710  0.2504  0.2743
   35C      H4' 1092   4.791   4.796   6.806  0.5105  0.0720  0.3338
   35C      O4' 1093   4.645   4.696   6.907 -0.3806 -0.2216 -0.3260
   35C      C1' 1094   4.684   4.562   6.888  0.7057 -0.0035  0.2583
   35C      H1' 1095   4.757   4.532   6.963  1.9697 -2.8699 -1.9359
   35C       N1 1096   4.566   4.474   6.899  0.4102  0.2572 -0.7017
   35C       C6 1097   4.437   4.518   6.886  0.3623  0.2501 -0.2714
   35C       H6 1098   4.420   4.614   6.838 -1.5379 -0.1684 -0.5095
   35C       C5 1099   4.329   4.441   6.908  0.3882  0.1310 -0.5545
   35C       H5 1100   4.232   4.483   6.888  0.2675  0.4960  0.7228
   35C       C4 1101   4.355   4.305   6.945  0.2689  0.2278 -0.1130
   35C       N4 1102   4.255   4.217   6.965 -0.0611  0.5151 -0.4824
   35C      H41 1103   4.162   4.241   6.935  0.1797 -0.0414 -1.6977
   35C      H42 1104   4.278   4.132   7.015 -1.8425  1.0079  1.3203
   35C       N3 1105   4.480   4.264   6.971  0.0565 -0.3472  0.0189
   35C       C2 1106   4.585   4.346   6.949 -0.5153  0.4333  0.1506
   35C       O2 1107   4.693   4.289   6.965 -0.4911  0.3882 -0.1668
   35C      C3' 1108   4.685   4.671   6.677  0.0138 -0.1286  0.5915
   35C      H3' 1109   4.585   4.656   6.637  0.4430 -0.9113 -0.2364
   35C      C2' 1110   4.741   4.548   6.748 -0.4018 -0.7449 -0.1335
   35C     H2'1 1111   4.700   4.457   6.704  0.8324 -1.9139  1.0573
   35C      O2' 1112   4.881   4.542   6.763 -0.3714  0.1289 -0.0529
   35C     HO'2 1113   4.908   4.454   6.735  1.4167 -0.0431  1.9695
   35C      O3' 1114   4.774   4.714   6.576 -0.5430  0.0122  0.1537
   36C        P 1115   4.780   4.643   6.432  0.2168  0.1152  0.1270
   36C      O1P 1116   4.883   4.711   6.350  0.1036 -0.1861 -0.2680
   36C      O2P 1117   4.643   4.639   6.377  0.2725  0.0742 -0.0098
   36C      O5' 1118   4.812   4.486   6.453  0.0039  0.0419 -0.0850
   36C      C5' 1119   4.942   4.435   6.476 -0.0105 -0.0565 -0.2163
   36C     H5'1 1120   4.997   4.491   6.552  2.0524 -2.6524  0.3030
   36C     H5'2 1121   5.003   4.441   6.386  3.2838  0.0244  1.8473
   36C      C4' 1122   4.950   4.287   6.512  0.1279 -0.1035 -0.4377
   36C      H4' 1123   5.056   4.267   6.532  0.3202  1.3402  0.1670
   36C      O4' 1124   4.862   4.265   6.620  0.2460  0.0093 -0.3164
   36C      C1' 1125   4.819   4.131   6.625  0.0510  0.0859  0.1240
   36C      H1' 1126   4.859   4.074   6.709  2.3342 -0.4121 -1.2136
   36C       N1 1127   4.673   4.122   6.638  0.1084  0.1375  0.8349
   36C       C6 1128   4.593   4.228   6.603  0.4000  0.2641  0.5444
   36C       H6 1129   4.628   4.312   6.547  0.1892 -0.0725 -0.0984
   36C       C5 1130   4.462   4.218   6.634  0.2989  0.0481  0.0526
   36C       H5 1131   4.396   4.300   6.612 -0.1672 -0.2899  0.1650
   36C       C4 1132   4.406   4.097   6.688  0.4858  0.0601  0.2709
   36C       N4 1133   4.274   4.086   6.708  0.4444  0.3912  0.1836
   36C      H41 1134   4.210   4.164   6.697 -0.2091  0.1780  2.0493
   36C      H42 1135   4.236   3.999   6.742  0.3579  0.0919 -0.6597
   36C       N3 1136   4.485   3.989   6.696  0.1155 -0.2629 -0.3991
   36C       C2 1137   4.619   4.002   6.681  0.1661 -0.1365  0.1523
   36C       O2 1138   4.684   3.898   6.682 -0.0562 -0.2781 -0.1793
   36C      C3' 1139   4.902   4.187   6.409  0.3736 -0.3659 -0.2973
   36C      H3' 1140   4.810   4.221   6.362 -1.5691 -0.0072  3.4231
   36C      C2' 1141   4.871   4.066   6.497 -0.1729  0.0316  0.0606
   36C     H2'1 1142   4.797   4.001   6.450  0.2274  0.6490 -1.5041
   36C      O2' 1143   4.974   3.980   6.540  0.2255  0.4592 -0.0313
   36C     HO'2 1144   4.978   3.910   6.474 -0.7466 -1.2595  1.6233
   36C      O3' 1145   5.010   4.156   6.323  0.5099 -0.0871 -0.2254
   37C        P 1146   4.991   4.096   6.175  0.2451 -0.3849 -0.0718
   37C      O1P 1147   5.125   4.088   6.112  0.2055 -0.1220 -0.1921
   37C      O2P 1148   4.891   4.181   6.105  0.4757  0.2692  0.3911
   37C      O5' 1149   4.925   3.951   6.197  0.1806 -0.2897  0.3708
   37C      C5' 1150   5.005   3.841   6.236  0.4795 -0.4473 -0.6592
   37C     H5'1 1151   5.066   3.875   6.319 -0.6486  1.2328 -0.4543
   37C     H5'2 1152   5.070   3.806   6.156 -0.8069 -0.1302 -1.8934
   37C      C4' 1153   4.919   3.721   6.275 -0.1375  0.0679 -0.4071
   37C      H4' 1154   4.986   3.648   6.321  0.3388  0.3731 -0.6022
   37C      O4' 1155   4.820   3.746   6.372  0.0420 -0.3580 -0.1104
   37C      C1' 1156   4.709   3.659   6.361 -0.3739  0.1341  0.1553
   37C      H1' 1157   4.706   3.601   6.453 -0.1660  1.5940  1.1264
   37C       N1 1158   4.580   3.728   6.345 -0.4378 -0.0648 -0.1952
   37C       C6 1159   4.579   3.859   6.305 -0.2344 -0.0551 -0.1678
   37C       H6 1160   4.664   3.902   6.255  0.9879 -1.7353  0.3674
   37C       C5 1161   4.474   3.939   6.332 -0.0029 -0.0737  0.8145
   37C       H5 1162   4.473   4.040   6.294 -2.2483 -0.5546 -0.5829
   37C       C4 1163   4.365   3.876   6.401 -0.3169 -0.1433  0.2527
   37C       N4 1164   4.252   3.943   6.425 -0.0910  0.3911 -0.1341
   37C      H41 1165   4.240   4.039   6.398  0.5532  0.6895  0.6170
   37C      H42 1166   4.178   3.884   6.460 -0.0673  0.8682  0.7391
   37C       N3 1167   4.364   3.744   6.427 -0.1316 -0.1699  0.1280
   37C       C2 1168   4.469   3.663   6.397 -0.2117 -0.2488  0.0596
   37C       O2 1169   4.466   3.543   6.421 -0.4232 -0.3960 -0.6805
   37C      C3' 1170   4.833   3.656   6.167  0.0212 -0.2684 -0.3330
   37C      H3' 1171   4.764   3.729   6.126  0.3725  1.1399  1.4375
   37C      C2' 1172   4.744   3.563   6.248  0.1541  0.1526  0.3022
   37C     H2'1 1173   4.652   3.542   6.194  1.4607  1.2738 -2.5488
   37C      O2' 1174   4.823   3.454   6.292  0.5064  0.2464 -0.0845
   37C     HO'2 1175   4.873   3.421   6.217 -2.9616 -1.4118 -1.9355
   37C      O3' 1176   4.907   3.585   6.070  0.4478 -0.0288 -0.1861
   38U        P 1177   4.865   3.556   5.918 -0.2030  0.1760 -0.0479
   38U      O1P 1178   4.966   3.478   5.843 -0.4869  0.0330 -0.2859
   38U      O2P 1179   4.826   3.686   5.859  0.0026  0.0430 -0.4904
   38U      O5' 1180   4.733   3.466   5.939 -0.0147 -0.2252 -0.5551
   38U      C5' 1181   4.732   3.328   5.965 -0.0210 -0.2704 -0.7912
   38U     H5'1 1182   4.784   3.300   6.057  2.1698 -2.2940 -2.5160
   38U     H5'2 1183   4.764   3.277   5.874  1.0220  0.7866 -1.0253
   38U      C4' 1184   4.585   3.298   5.992  0.0617  0.2753  0.3451
   38U      H4' 1185   4.596   3.196   6.028  3.3583  0.4410  0.0770
   38U      O4' 1186   4.527   3.359   6.105 -0.1078 -0.1626  0.4986
   38U      C1' 1187   4.389   3.360   6.074  0.0596  0.0640 -0.2676
   38U      H1' 1188   4.335   3.295   6.142 -0.4013 -1.5110 -2.0570
   38U       N1 1189   4.330   3.493   6.098 -0.3261 -0.0194 -0.7434
   38U       C6 1190   4.399   3.605   6.061  0.0588  0.0459  0.1558
   38U       H6 1191   4.501   3.599   6.024  0.5709 -1.8975  1.7131
   38U       C5 1192   4.341   3.725   6.078 -0.0888 -0.0257  0.1552
   38U       H5 1193   4.393   3.815   6.047 -0.7521  0.4796  0.4789
   38U       C4 1194   4.203   3.740   6.118 -0.2395 -0.3097 -0.2483
   38U       O4 1195   4.142   3.845   6.136 -0.7468 -0.6983  0.3303
   38U       N3 1196   4.138   3.621   6.149 -0.1009 -0.3462 -0.0986
   38U       H3 1197   4.041   3.624   6.175 -0.0573  1.1102  0.0090
   38U       C2 1198   4.200   3.497   6.145 -0.0608 -0.3318  0.0380
   38U       O2 1199   4.133   3.401   6.181  0.1139 -0.5214 -0.1347
   38U      C3' 1200   4.493   3.304   5.869  0.0278  0.1828  0.3646
   38U      H3' 1201   4.505   3.397   5.812  2.4324  0.0296  0.5079
   38U      C2' 1202   4.356   3.304   5.936 -0.2037 -0.1698 -0.1097
   38U     H2'1 1203   4.287   3.368   5.883 -2.6035 -1.0451  1.7766
   38U      O2' 1204   4.296   3.178   5.957 -0.3606 -0.1147 -0.2231
   38U     HO'2 1205   4.222   3.163   5.898 -0.2116 -0.7919 -0.2461
   38U      O3' 1206   4.515   3.191   5.789 -0.2312  0.5127 -0.1798
   39U        P 1207   4.437   3.176   5.649 -0.3932 -0.2533 -0.0153
   39U      O1P 1208   4.468   3.044   5.591 -0.1995 -0.3781  0.3701
   39U      O2P 1209   4.476   3.292   5.565  0.2064 -0.5788 -0.1924
   39U      O5' 1210   4.277   3.169   5.669 -0.3159 -0.5784  0.5111
   39U      C5' 1211   4.196   3.054   5.664  0.4275 -1.1222  0.6607
   39U     H5'1 1212   4.235   2.975   5.728  0.6527 -2.5972 -1.2262
   39U     H5'2 1213   4.186   3.012   5.564 -2.1178 -1.0452  0.7983
   39U      C4' 1214   4.051   3.068   5.711  0.3508  0.4676  0.0143
   39U      H4' 1215   4.017   2.967   5.734  0.1845  0.8183  1.4125
   39U      O4' 1216   4.041   3.137   5.834 -0.1751  0.3144  0.0602
   39U      C1' 1217   3.919   3.208   5.839 -0.2332  0.1893  0.4500
   39U      H1' 1218   3.861   3.181   5.927 -0.2461 -0.0444  0.3692
   39U       N1 1219   3.945   3.353   5.851  0.1008  0.2125 -0.4751
   39U       C6 1220   4.051   3.422   5.801  0.1516  0.0887 -0.5370
   39U       H6 1221   4.131   3.364   5.756 -0.8425 -0.7201 -1.2914
   39U       C5 1222   4.062   3.557   5.806 -0.3213  0.1126 -0.1333
   39U       H5 1223   4.154   3.603   5.773  0.9525 -2.3106 -0.1799
   39U       C4 1224   3.959   3.635   5.870 -0.3906 -0.2139  0.1600
   39U       O4 1225   3.977   3.756   5.882 -0.3752 -0.2085  0.0783
   39U       N3 1226   3.851   3.564   5.920 -0.4117  0.0946  0.5610
   39U       H3 1227   3.771   3.615   5.953 -0.9949  0.9940 -1.9981
   39U       C2 1228   3.844   3.425   5.913  0.0776  0.1129 -0.3977
   39U       O2 1229   3.738   3.374   5.947  0.4395 -0.4459 -0.1042
   39U      C3' 1230   3.955   3.139   5.615  0.3029  0.2596 -0.0923
   39U      H3' 1231   4.011   3.224   5.575  0.9540 -0.2978 -0.3993
   39U      C2' 1232   3.842   3.175   5.711  0.3890 -0.0913  0.1429
   39U     H2'1 1233   3.800   3.266   5.668  1.3697 -0.7727 -2.4460
   39U      O2' 1234   3.747   3.074   5.733 -0.0094  0.1577 -0.4247
   39U     HO'2 1235   3.716   3.025   5.657  1.5083  0.1652 -1.0678
   39U      O3' 1236   3.909   3.060   5.508 -0.2622  0.2115  0.1842
   40C        P 1237   3.867   3.125   5.367  0.0946 -0.0836 -0.0599
   40C      O1P 1238   3.828   3.012   5.280  0.3694 -0.1538 -0.0951
   40C      O2P 1239   3.970   3.219   5.317 -0.2084  0.3683  0.1570
   40C      O5' 1240   3.731   3.207   5.394  0.2224  0.0953  0.0449
   40C      C5' 1241   3.610   3.136   5.406 -0.0165  0.3907 -0.5752
   40C     H5'1 1242   3.619   3.050   5.472 -0.3202 -0.1941 -1.2690
   40C     H5'2 1243   3.576   3.093   5.311 -0.5232  0.5998 -0.4897
   40C      C4' 1244   3.493   3.218   5.459  0.2280  0.2201  0.2420
   40C      H4' 1245   3.416   3.145   5.483 -1.0427  1.0384 -1.1844
   40C      O4' 1246   3.524   3.274   5.585  0.0282 -0.0846  0.4264
   40C      C1' 1247   3.460   3.399   5.594 -0.1109 -0.0888 -0.3923
   40C      H1' 1248   3.386   3.392   5.674 -0.9354  1.7093 -0.9393
   40C       N1 1249   3.551   3.512   5.619 -0.2380 -0.0581 -0.0531
   40C       C6 1250   3.676   3.508   5.564 -0.1534  0.1599  0.1221
   40C       H6 1251   3.709   3.413   5.524 -0.3771 -0.9590  2.4397
   40C       C5 1252   3.758   3.615   5.561  0.0507  0.0355  0.8952
   40C       H5 1253   3.858   3.609   5.521 -0.5594  0.1529 -0.7511
   40C       C4 1254   3.712   3.736   5.622 -0.2122  0.2735  0.2364
   40C       N4 1255   3.777   3.853   5.618  0.3310 -0.0339 -0.0310
   40C      H41 1256   3.861   3.864   5.564 -0.3562 -1.8534 -1.5530
   40C      H42 1257   3.725   3.935   5.647  1.4184 -0.0743  2.2554
   40C       N3 1258   3.587   3.740   5.670 -0.1710 -0.0965  0.3783
   40C       C2 1259   3.507   3.630   5.675 -0.2357 -0.0732 -0.0197
   40C       O2 1260   3.393   3.638   5.721 -0.0762  0.6568  0.2635
   40C      C3' 1261   3.453   3.329   5.362 -0.4099 -0.2235 -0.0070
   40C      H3' 1262   3.537   3.382   5.319  0.6823 -1.6427  0.3206
   40C      C2' 1263   3.381   3.417   5.464 -0.1781  0.3036 -0.2973
   40C     H2'1 1264   3.399   3.523   5.445  1.1444  0.0510 -0.5727
   40C      O2' 1265   3.248   3.379   5.492  0.2049 -0.5879  0.3593
   40C     HO'2 1266   3.197   3.376   5.411 -0.2808 -2.0998  0.6973
   40C      O3' 1267   3.370   3.271   5.264 -0.0115 -0.5805 -0.1343
   41C        P 1268   3.332   3.354   5.132 -0.0294 -0.0131  0.2269
   41C      O1P 1269   3.242   3.263   5.057 -0.0886 -0.0463  0.3372
   41C      O2P 1270   3.454   3.406   5.067 -0.1058 -0.5836 -0.3853
   41C      O5' 1271   3.244   3.483   5.172  0.3332  0.4022 -0.2952
   41C      C5' 1272   3.105   3.486   5.201  0.4175 -0.1657  0.1873
   41C     H5'1 1273   3.089   3.410   5.277  0.1668  0.4034  0.7124
   41C     H5'2 1274   3.048   3.455   5.113  0.8478 -0.9227  0.1663
   41C      C4' 1275   3.057   3.621   5.253  0.4400 -0.0865  0.0078
   41C      H4' 1276   2.951   3.618   5.277  0.1724  1.4332 -0.9111
   41C      O4' 1277   3.126   3.672   5.365  0.1871 -0.1328  0.1878
   41C      C1' 1278   3.148   3.811   5.362  0.1114 -0.1211  0.1733
   41C      H1' 1279   3.109   3.863   5.450  0.4117  2.5285 -1.1548
   41C       N1 1280   3.291   3.846   5.351 -0.0151  0.3126 -0.1333
   41C       C6 1281   3.390   3.760   5.312 -0.5692 -0.3428 -0.1122
   41C       H6 1282   3.367   3.661   5.275 -1.4734 -0.3043  0.3138
   41C       C5 1283   3.518   3.801   5.319 -0.8681  0.7078 -0.4712
   41C       H5 1284   3.596   3.730   5.293 -1.6394  0.1344 -1.2540
   41C       C4 1285   3.551   3.932   5.366  0.3562  0.2920 -0.1272
   41C       N4 1286   3.678   3.976   5.365  0.3233  0.3871 -0.0969
   41C      H41 1287   3.743   3.920   5.313  0.3309 -0.1186  0.4497
   41C      H42 1288   3.704   4.064   5.408 -0.1172 -0.1224  1.2885
   41C       N3 1289   3.454   4.015   5.407  0.1601 -0.0738  0.1571
   41C       C2 1290   3.326   3.974   5.390  0.0876  0.3672 -0.4040
   41C       O2 1291   3.241   4.062   5.401 -0.4185 -0.1582 -0.1010
   41C      C3' 1292   3.080   3.730   5.150 -0.0495  0.1078  0.1004
   41C      H3' 1293   3.176   3.714   5.101 -0.2592 -2.1444  0.3196
   41C      C2' 1294   3.080   3.858   5.234  0.3185  0.0866  0.1374
   41C     H2'1 1295   3.131   3.941   5.186 -0.6289  0.3440 -0.4663
   41C      O2' 1296   2.945   3.889   5.261  0.1493 -0.3229 -0.2359
   41C     HO'2 1297   2.905   3.912   5.176  0.2847  0.7146 -0.0299
   41C      O3' 1298   2.978   3.717   5.054  0.2526  0.3067 -0.2501
   42G        P 1299   3.001   3.779   4.907 -0.0166  0.1895 -0.3414
   42G      O1P 1300   2.882   3.744   4.826  0.1111 -0.7203 -0.1531
   42G      O2P 1301   3.125   3.723   4.850  0.3857  0.7787 -0.0531
   42G      O5' 1302   3.018   3.936   4.935  0.6061  0.0519  0.0779
   42G      C5' 1303   2.904   4.017   4.958  0.5693 -0.1749  0.7198
   42G     H5'1 1304   2.835   3.964   5.023  0.2005  1.5515  1.7977
   42G     H5'2 1305   2.853   4.031   4.863  0.8944  1.3034  0.7411
   42G      C4' 1306   2.938   4.158   5.005 -0.5141  0.4650 -0.3620
   42G      H4' 1307   2.843   4.211   5.015  0.0439  1.3797  0.3001
   42G      O4' 1308   3.019   4.160   5.120 -0.4586  0.3033 -0.3978
   42G      C1' 1309   3.114   4.264   5.112 -0.0057 -0.0831 -0.0790
   42G      H1' 1310   3.120   4.330   5.199 -3.6834 -1.7769  1.6633
   42G       N9 1311   3.251   4.216   5.085 -0.1380 -0.2777 -0.4019
   42G       C8 1312   3.295   4.101   5.023 -0.7787 -0.6338 -0.2044
   42G       H8 1313   3.232   4.023   4.984  1.7919 -1.9437 -2.0287
   42G       N7 1314   3.425   4.098   5.020 -0.7400  0.3885 -0.1230
   42G       C5 1315   3.466   4.212   5.087  0.2193 -0.1179  0.1822
   42G       C6 1316   3.596   4.263   5.113  0.2869 -0.0755 -0.2186
   42G       O6 1317   3.703   4.205   5.096  0.4626 -0.0251  0.6643
   42G       N1 1318   3.598   4.396   5.152 -0.7649 -0.0857 -0.1078
   42G       H1 1319   3.690   4.437   5.154  0.0972 -1.6934  4.1833
   42G       C2 1320   3.484   4.471   5.171 -0.4121  0.2982  0.5530
   42G       N2 1321   3.508   4.602   5.186  0.0236  0.3209 -0.2537
   42G      H21 1322   3.604   4.631   5.194  0.6268 -1.3903 -0.8324
   42G      H22 1323   3.427   4.658   5.212  1.2473  1.3792  1.5121
   42G       N3 1324   3.360   4.423   5.158 -0.0629 -0.4408 -0.1100
   42G       C4 1325   3.360   4.294   5.115 -0.1106 -0.6218  0.4235
   42G      C3' 1326   3.014   4.236   4.898 -0.4319  0.6250 -0.1873
   42G      H3' 1327   3.096   4.177   4.856 -0.7585  0.2594 -0.3140
   42G      C2' 1328   3.079   4.343   4.987 -0.1985  0.2021  0.1529
   42G     H2'1 1329   3.174   4.367   4.941 -0.1119  2.6365  1.4795
   42G      O2' 1330   2.998   4.457   5.008  0.2393  0.5446 -0.0187
   42G     HO'2 1331   3.032   4.518   5.074 -3.0604  0.1347  2.2639
   42G      O3' 1332   2.922   4.295   4.808 -0.7458 -0.3395 -0.5075
   43U        P 1333   2.962   4.332   4.657 -0.1961 -0.1178 -0.3098
   43U      O1P 1334   2.836   4.389   4.605 -0.2014 -0.1105 -0.2899
   43U      O2P 1335   3.018   4.214   4.587 -0.1804 -0.6810  0.6414
   43U      O5' 1336   3.072   4.450   4.659 -0.2946 -0.0176 -0.7097
   43U      C5' 1337   3.037   4.582   4.693  0.4356  0.0812 -0.3345
   43U     H5'1 1338   2.964   4.578   4.774 -1.1811  0.5777 -1.6992
   43U     H5'2 1339   2.997   4.619   4.599  0.2295 -0.9524 -0.6653
   43U      C4' 1340   3.153   4.678   4.722  0.1660  0.2408  0.2334
   43U      H4' 1341   3.099   4.770   4.748 -2.2851 -1.5920  2.2267
   43U      O4' 1342   3.224   4.644   4.839  0.3241  0.2754  0.1464
   43U      C1' 1343   3.361   4.669   4.814  0.4062  0.4676  0.7696
   43U      H1' 1344   3.395   4.743   4.886 -2.2578  0.8403  1.7453
   43U       N1 1345   3.455   4.556   4.801  0.2070  0.4112 -0.3221
   43U       C6 1346   3.415   4.432   4.762 -0.0250  0.4498 -0.2094
   43U       H6 1347   3.316   4.413   4.724  1.1231 -0.3667 -2.9962
   43U       C5 1348   3.506   4.332   4.761 -0.1750  0.3140 -0.2687
   43U       H5 1349   3.482   4.236   4.717  2.0974 -0.6236  0.3647
   43U       C4 1350   3.644   4.343   4.800 -0.3496 -0.0625  0.4910
   43U       O4 1351   3.727   4.252   4.794 -0.1549  0.1200  0.3712
   43U       N3 1352   3.675   4.473   4.835  0.1837 -0.1417  0.3250
   43U       H3 1353   3.765   4.495   4.876  0.3423 -1.7113  0.8914
   43U       C2 1354   3.586   4.579   4.838  0.1666 -0.1534  0.2023
   43U       O2 1355   3.629   4.693   4.853  0.3899 -0.3165  0.7916
   43U      C3' 1356   3.247   4.708   4.607  0.0276  0.1528  0.0962
   43U      H3' 1357   3.270   4.618   4.550 -0.1117 -0.4706  1.0037
   43U      C2' 1358   3.375   4.744   4.682  0.2296 -0.6088  0.1249
   43U     H2'1 1359   3.471   4.719   4.636 -0.0991  1.3495 -1.8280
   43U      O2' 1360   3.388   4.883   4.702 -0.5729 -0.4500 -0.4323
   43U     HO'2 1361   3.322   4.912   4.638  1.3526 -2.5762 -3.6348
   43U      O3' 1362   3.203   4.813   4.524  0.1558  0.0500 -0.1027
   44A        P 1363   3.243   4.818   4.368 -0.3559 -0.0563 -0.2378
   44A      O1P 1364   3.160   4.930   4.316 -0.2541 -0.0478 -0.3822
   44A      O2P 1365   3.232   4.684   4.305  0.3613 -0.2513  0.0499
   44A      O5' 1366   3.399   4.855   4.361 -0.3178 -0.1152  0.2931
   44A      C5' 1367   3.436   4.989   4.387 -0.0489 -0.1870  0.2907
   44A     H5'1 1368   3.387   5.030   4.475  0.0475  0.2608  0.1360
   44A     H5'2 1369   3.411   5.043   4.296 -0.3519 -2.2898 -0.9392
   44A      C4' 1370   3.587   4.996   4.403  0.0098  0.5647 -0.5262
   44A      H4' 1371   3.618   5.098   4.426  1.7406 -0.0301 -0.0597
   44A      O4' 1372   3.628   4.920   4.514 -0.1289  0.1578 -0.7531
   44A      C1' 1373   3.763   4.886   4.493  0.0155  0.2697 -0.0458
   44A      H1' 1374   3.823   4.939   4.567 -0.0318 -1.4972  1.3172
   44A       N9 1375   3.775   4.739   4.497  0.2055  0.2979  0.4339
   44A       C8 1376   3.684   4.639   4.478 -0.0000  0.4645  0.5428
   44A       H8 1377   3.577   4.646   4.492 -0.2707 -1.5644 -0.1904
   44A       N7 1378   3.737   4.520   4.483  0.1612  0.5559  1.0412
   44A       C5 1379   3.871   4.545   4.509  0.4359  0.1809  0.0373
   44A       C6 1380   3.979   4.464   4.548  0.0981  0.0364  0.6964
   44A       N6 1381   3.973   4.331   4.562 -0.5311 -0.0451 -0.2992
   44A      H61 1382   3.892   4.280   4.529  1.3666 -2.6391 -1.3150
   44A      H62 1383   4.059   4.286   4.589 -1.4773 -0.9814  1.2809
   44A       N1 1384   4.101   4.516   4.566  0.3393 -0.0225 -0.6804
   44A       C2 1385   4.111   4.648   4.560 -0.0468  0.0751  0.6352
   44A       H2 1386   4.209   4.692   4.565 -0.1918  0.6792 -1.2307
   44A       N3 1387   4.018   4.738   4.530  0.3525  0.1597 -0.3856
   44A       C4 1388   3.898   4.679   4.510  0.1807  0.2336  0.3701
   44A      C3' 1389   3.672   4.937   4.291  0.2473 -0.1567  0.0245
   44A      H3' 1390   3.630   4.841   4.259 -0.6545  0.5240 -0.9116
   44A      C2' 1391   3.810   4.930   4.354  0.3379 -0.5709 -0.2113
   44A     H2'1 1392   3.863   4.853   4.298  0.8959  0.7667 -1.5823
   44A      O2' 1393   3.888   5.048   4.357  0.1546 -0.4482 -0.2888
   44A     HO'2 1394   3.979   5.025   4.336  0.7217 -0.0212  1.5075
   44A      O3' 1395   3.672   5.029   4.184  0.1591  0.0037  0.1634
   45G        P 1396   3.731   4.997   4.038  0.0330  0.3538  0.0325
   45G      O1P 1397   3.709   5.120   3.960  0.1754  0.4563  0.1552
   45G      O2P 1398   3.672   4.867   3.998  0.1920  0.2713  0.0678
   45G      O5' 1399   3.890   4.975   4.054 -0.0684 -0.6379 -0.2449
   45G      C5' 1400   3.978   5.084   4.063 -0.4498 -0.3311 -0.1945
   45G     H5'1 1401   3.949   5.159   4.137 -0.2654 -2.0377  1.6769
   45G     H5'2 1402   3.983   5.139   3.969 -1.5159 -0.4356 -0.3209
   45G      C4' 1403   4.115   5.029   4.100 -0.5215 -0.5958 -0.3182
   45G      H4' 1404   4.176   5.118   4.116 -1.6149 -0.1479  1.6700
   45G      O4' 1405   4.110   4.956   4.220  0.0521  0.2272  0.2227
   45G      C1' 1406   4.213   4.860   4.224 -0.1491  0.0070  0.1658
   45G      H1' 1407   4.270   4.856   4.317 -3.4252 -3.2644  2.2911
   45G       N9 1408   4.145   4.729   4.214 -0.0399 -0.0860  0.6073
   45G       C8 1409   4.016   4.692   4.186  0.2665 -0.6435 -0.1032
   45G       H8 1410   3.936   4.756   4.151 -0.8222 -2.6393 -1.4207
   45G       N7 1411   3.998   4.563   4.187 -0.1982 -0.5884 -0.8856
   45G       C5 1412   4.121   4.509   4.222 -0.3042 -0.0247  0.3983
   45G       C6 1413   4.167   4.375   4.232 -0.0028  0.0386 -0.1218
   45G       O6 1414   4.107   4.269   4.220 -0.5146  0.2168  0.7824
   45G       N1 1415   4.298   4.368   4.277  0.0978  0.1908 -0.3870
   45G       H1 1416   4.327   4.274   4.300 -1.1457  0.1901  1.3856
   45G       C2 1417   4.383   4.475   4.295  0.2623  0.0595 -0.3816
   45G       N2 1418   4.512   4.452   4.323  0.2180  0.5990  0.2755
   45G      H21 1419   4.548   4.359   4.334  2.3967  1.3287 -0.1031
   45G      H22 1420   4.573   4.533   4.319  1.6032 -0.4571 -0.9004
   45G       N3 1421   4.343   4.599   4.266 -0.1028  0.1563  0.4965
   45G       C4 1422   4.211   4.611   4.239 -0.0696 -0.1946  0.1744
   45G      C3' 1423   4.195   4.941   4.004 -0.4800 -0.8460 -0.0573
   45G      H3' 1424   4.130   4.866   3.959 -0.2324 -0.5096 -0.9914
   45G      C2' 1425   4.297   4.880   4.098 -0.2366 -0.2604  0.0644
   45G     H2'1 1426   4.346   4.793   4.053 -0.6549 -0.5667  0.1946
   45G      O2' 1427   4.402   4.961   4.146 -0.1849 -0.6605  0.6425
   45G     HO'2 1428   4.472   4.909   4.188  0.7247  1.4277  1.8769
   45G      O3' 1429   4.246   5.018   3.897  0.1569 -0.6417  0.3913
   46A        P 1430   4.277   4.953   3.753  0.1002  0.1050  0.0407
   46A      O1P 1431   4.341   5.055   3.667 -0.4735  0.2497 -0.2199
   46A      O2P 1432   4.151   4.894   3.702  0.0254  0.3718 -0.0854
   46A      O5' 1433   4.381   4.835   3.788 -0.2639 -0.0431  0.6323
   46A      C5' 1434   4.517   4.868   3.807 -0.1113 -0.3459  0.0879
   46A     H5'1 1435   4.534   4.954   3.873  1.2797  1.3752 -2.3762
   46A     H5'2 1436   4.550   4.916   3.716 -1.2755  1.2241  0.4538
   46A      C4' 1437   4.606   4.749   3.843  0.2962 -0.1642 -0.3122
   46A      H4' 1438   4.707   4.784   3.863  0.2112  0.6186 -1.1727
   46A      O4' 1439   4.555   4.679   3.955  0.0283  0.2741 -0.1593
   46A      C1' 1440   4.578   4.540   3.956 -0.4504  0.1896 -0.4952
   46A      H1' 1441   4.648   4.508   4.033  0.1561  0.6614 -0.8361
   46A       N9 1442   4.453   4.462   3.968 -0.4622  0.3196  0.2495
   46A       C8 1443   4.329   4.500   3.924 -0.3408  0.3050 -0.1047
   46A       H8 1444   4.316   4.605   3.902  0.5599  0.6333  0.8857
   46A       N7 1445   4.240   4.405   3.924 -0.0078 -0.0111  0.4522
   46A       C5 1446   4.313   4.293   3.962  0.1458 -0.0997 -0.0989
   46A       C6 1447   4.281   4.161   3.995 -0.4469  0.0088 -0.2172
   46A       N6 1448   4.169   4.090   3.977 -0.2597 -0.3747  0.1038
   46A      H61 1449   4.090   4.124   3.924 -0.4501 -0.2810  0.4434
   46A      H62 1450   4.172   3.995   4.011  0.6183 -0.9102 -1.3658
   46A       N1 1451   4.373   4.073   4.036 -0.2724  0.4271  0.2915
   46A       C2 1452   4.498   4.117   4.048 -0.0912  0.3277 -1.0718
   46A       H2 1453   4.573   4.040   4.059  0.6683  0.7692 -2.8778
   46A       N3 1454   4.539   4.241   4.031  0.2181  0.3543 -0.1723
   46A       C4 1455   4.443   4.327   3.990  0.1079  0.1877 -0.2623
   46A      C3' 1456   4.606   4.638   3.738  0.1507 -0.2203 -0.2534
   46A      H3' 1457   4.503   4.629   3.704 -0.8031 -0.7503  2.5223
   46A      C2' 1458   4.646   4.517   3.821  0.3285 -0.0322 -0.0644
   46A     H2'1 1459   4.622   4.422   3.772  3.4174 -0.8233 -0.2721
   46A      O2' 1460   4.785   4.527   3.846  0.3935 -0.1145 -0.3954
   46A     HO'2 1461   4.828   4.544   3.762 -0.1920  3.6695 -0.0785
   46A      O3' 1462   4.704   4.684   3.648  0.1479  0.5514  0.1264
   47G        P 1463   4.674   4.649   3.494 -0.0491 -0.2819  0.3472
   47G      O1P 1464   4.782   4.710   3.414 -0.2947  0.3826  0.5170
   47G      O2P 1465   4.531   4.679   3.470  0.2984  0.9894 -0.2085
   47G      O5' 1466   4.700   4.490   3.498 -0.2559 -0.3074  0.6923
   47G      C5' 1467   4.825   4.429   3.478 -0.0081  0.2490  0.5126
   47G     H5'1 1468   4.897   4.476   3.545 -1.9095  4.5109 -0.1717
   47G     H5'2 1469   4.867   4.434   3.377 -0.1209  1.0329  0.5061
   47G      C4' 1470   4.823   4.281   3.518  0.3865  0.1567  0.2041
   47G      H4' 1471   4.930   4.266   3.528  0.6251  0.9552 -0.9818
   47G      O4' 1472   4.750   4.253   3.635  0.2320  0.0689  0.0875
   47G      C1' 1473   4.704   4.121   3.623 -0.0452  0.1499  0.2380
   47G      H1' 1474   4.746   4.064   3.706  1.1676  0.1772 -0.3337
   47G       N9 1475   4.556   4.116   3.623 -0.0494  0.0650 -0.5587
   47G       C8 1476   4.466   4.219   3.611 -0.2343  0.0679  0.6945
   47G       H8 1477   4.500   4.315   3.575  0.8108 -1.0069 -1.3892
   47G       N7 1478   4.342   4.182   3.621 -0.2752 -0.0100 -0.0271
   47G       C5 1479   4.351   4.048   3.657 -0.2961 -0.0327 -0.1068
   47G       C6 1480   4.247   3.963   3.702 -0.0866 -0.3311 -0.1826
   47G       O6 1481   4.125   3.980   3.695 -0.0460 -0.0583 -0.2239
   47G       N1 1482   4.291   3.837   3.740 -0.1650 -0.2381  0.2248
   47G       H1 1483   4.219   3.766   3.747 -0.0366 -0.3846  0.0774
   47G       C2 1484   4.425   3.803   3.740 -0.2893 -0.7520 -0.1081
   47G       N2 1485   4.455   3.674   3.759  0.3795 -0.5443  0.2908
   47G      H21 1486   4.391   3.608   3.800  0.1393 -1.3921 -1.3706
   47G      H22 1487   4.545   3.644   3.724  0.2872 -2.2903  1.4342
   47G       N3 1488   4.524   3.884   3.698 -0.8525  0.2407  0.4339
   47G       C4 1489   4.481   4.006   3.657 -0.1909  0.2879 -0.1305
   47G      C3' 1490   4.775   4.181   3.414 -0.0204  0.2369  0.3120
   47G      H3' 1491   4.681   4.220   3.375 -0.0420 -1.0397 -1.0131
   47G      C2' 1492   4.758   4.054   3.497  0.1817  0.2067  0.3064
   47G     H2'1 1493   4.685   3.980   3.465 -0.8805 -0.6716  4.1985
   47G      O2' 1494   4.874   3.984   3.537  0.1632 -0.2896 -0.4809
   47G     HO'2 1495   4.945   4.021   3.485  0.7887  0.8567  1.0916
   47G      O3' 1496   4.869   4.160   3.311 -0.4175 -0.7129  0.1276
   48U        P 1497   4.825   4.107   3.166 -0.0135 -0.1559 -0.2050
   48U      O1P 1498   4.942   4.106   3.076 -0.2221  0.3236 -0.4887
   48U      O2P 1499   4.709   4.187   3.120  0.1375  0.2837  0.1694
   48U      O5' 1500   4.773   3.957   3.194 -0.3105  0.0475  0.3324
   48U      C5' 1501   4.860   3.853   3.229  0.2353  0.2289 -0.4692
   48U     H5'1 1502   4.922   3.878   3.315 -0.3653 -1.7407  0.6157
   48U     H5'2 1503   4.909   3.823   3.136  0.2855 -3.0254  0.4798
   48U      C4' 1504   4.781   3.727   3.266  0.4324  0.1539 -0.3032
   48U      H4' 1505   4.864   3.658   3.282  1.7077  1.6518 -0.1380
   48U      O4' 1506   4.704   3.743   3.383 -0.1133 -0.0619 -0.6318
   48U      C1' 1507   4.582   3.673   3.378  0.0006 -0.2918 -0.2409
   48U      H1' 1508   4.565   3.604   3.461 -0.2843 -2.7637 -2.2346
   48U       N1 1509   4.461   3.757   3.370  0.2572  0.1441  0.3718
   48U       C6 1510   4.457   3.884   3.321  0.1922 -0.1752 -0.4700
   48U       H6 1511   4.544   3.929   3.273 -0.9259  0.3767 -2.0641
   48U       C5 1512   4.346   3.960   3.328  0.0837 -0.3501 -0.3179
   48U       H5 1513   4.349   4.063   3.298 -1.3941 -0.5699 -1.3820
   48U       C4 1514   4.218   3.910   3.375  0.0252  0.1927  0.1061
   48U       O4 1515   4.115   3.978   3.379 -0.3913 -0.4145 -0.1414
   48U       N3 1516   4.227   3.782   3.426  0.4620  0.3779  0.5016
   48U       H3 1517   4.142   3.732   3.451  0.8733  0.1708  1.5442
   48U       C2 1518   4.342   3.705   3.418  0.1257 -0.0630 -0.1724
   48U       O2 1519   4.328   3.583   3.432  0.2076 -0.0238  0.2788
   48U      C3' 1520   4.681   3.666   3.169  0.1476 -0.0233  0.0979
   48U      H3' 1521   4.625   3.749   3.126  0.4138  0.0994 -0.0158
   48U      C2' 1522   4.590   3.581   3.257  0.1208 -0.3169 -0.2132
   48U     H2'1 1523   4.491   3.564   3.215 -0.2336  0.2095  0.3946
   48U      O2' 1524   4.662   3.468   3.303 -0.1174 -0.4914 -0.2681
   48U     HO'2 1525   4.594   3.400   3.304  0.5200 -1.2228 -2.0036
   48U      O3' 1526   4.746   3.589   3.071 -0.0989  0.1215 -0.1821
   49C        P 1527   4.688   3.577   2.921 -0.0735 -0.0174 -0.1807
   49C      O1P 1528   4.790   3.504   2.842 -0.1637  0.0019 -0.3151
   49C      O2P 1529   4.644   3.713   2.886 -0.2800 -0.1178 -0.3128
   49C      O5' 1530   4.555   3.489   2.942  0.0916 -0.2321 -0.0215
   49C      C5' 1531   4.568   3.355   2.984  0.0696 -0.2820 -0.1731
   49C     H5'1 1532   4.629   3.358   3.075  1.1892  2.7851 -0.8918
   49C     H5'2 1533   4.598   3.296   2.898 -0.8176  2.6318 -2.6812
   49C      C4' 1534   4.432   3.297   3.021  0.1289 -0.1819  0.2089
   49C      H4' 1535   4.455   3.192   3.039  1.5176 -0.0033 -0.4001
   49C      O4' 1536   4.378   3.355   3.138 -0.0656 -0.3109  0.1827
   49C      C1' 1537   4.238   3.360   3.126 -0.0065 -0.0205 -0.4093
   49C      H1' 1538   4.193   3.323   3.218  1.6010  1.6895  1.1387
   49C       N1 1539   4.180   3.495   3.113 -0.1446 -0.0672 -0.2761
   49C       C6 1540   4.254   3.606   3.087 -0.0252 -0.2030 -0.5213
   49C       H6 1541   4.359   3.592   3.067  0.2725  1.0488  0.0479
   49C       C5 1542   4.199   3.729   3.091  0.0193 -0.1935 -0.1192
   49C       H5 1543   4.261   3.817   3.078  0.0891  0.3148  2.8986
   49C       C4 1544   4.057   3.738   3.109 -0.0425 -0.2832 -0.5392
   49C       N4 1545   4.006   3.860   3.135  0.4155 -0.1489 -0.2610
   49C      H41 1546   4.066   3.939   3.153 -1.8793  1.4258  0.7861
   49C      H42 1547   3.914   3.864   3.176  0.7583 -1.1159  0.6514
   49C       N3 1548   3.984   3.629   3.135  0.1586 -0.1342  0.7069
   49C       C2 1549   4.044   3.507   3.137 -0.0507 -0.2441  0.3576
   49C       O2 1550   3.979   3.405   3.157  0.1277 -0.4988 -0.3458
   49C      C3' 1551   4.324   3.318   2.915 -0.0575  0.1895  0.4694
   49C      H3' 1552   4.323   3.422   2.882 -1.5419  0.6241  1.7829
   49C      C2' 1553   4.204   3.279   3.001 -0.2017 -0.5114 -0.0426
   49C     H2'1 1554   4.116   3.319   2.950  0.4596  0.5626 -0.3894
   49C      O2' 1555   4.187   3.148   3.048 -0.8148 -0.2440  0.4893
   49C     HO'2 1556   4.115   3.134   3.110  0.7595 -0.3999  2.3761
   49C      O3' 1557   4.337   3.227   2.808 -0.4323  0.3655  0.2742
   50G        P 1558   4.256   3.257   2.672 -0.4150 -0.0090  0.1824
   50G      O1P 1559   4.287   3.145   2.580 -0.6983 -0.0059  0.0835
   50G      O2P 1560   4.294   3.394   2.631  0.5562 -0.2609  0.2189
   50G      O5' 1561   4.097   3.260   2.698 -0.4392  0.3170 -0.0042
   50G      C5' 1562   4.045   3.132   2.725  0.3118  0.0229  0.0746
   50G     H5'1 1563   4.102   3.087   2.806  1.0622  1.9410  0.6701
   50G     H5'2 1564   4.048   3.066   2.638  0.2467 -0.4804  0.4550
   50G      C4' 1565   3.898   3.142   2.763  0.2161  0.3267 -0.3623
   50G      H4' 1566   3.856   3.050   2.804 -0.8281  1.7824  2.0964
   50G      O4' 1567   3.872   3.231   2.870  0.0863  0.1838 -0.2746
   50G      C1' 1568   3.749   3.297   2.846 -0.2682 -0.4046 -0.1035
   50G      H1' 1569   3.676   3.278   2.924  1.4229  2.4666  2.4245
   50G       N9 1570   3.779   3.441   2.840 -0.1284 -0.4398 -0.2898
   50G       C8 1571   3.890   3.516   2.810 -0.0809  0.0124  0.9597
   50G       H8 1572   3.982   3.467   2.783 -0.4790 -0.7060  0.8915
   50G       N7 1573   3.881   3.646   2.817  0.0606  0.0688  0.1303
   50G       C5 1574   3.759   3.663   2.882 -0.1775 -0.0223 -0.2887
   50G       C6 1575   3.686   3.780   2.913  0.3718  0.0897  0.6450
   50G       O6 1576   3.715   3.899   2.911  0.6536  0.0145 -0.4461
   50G       N1 1577   3.553   3.756   2.948  0.1524 -0.3488 -0.4394
   50G       H1 1578   3.502   3.833   2.988 -0.5208 -0.5535 -0.8740
   50G       C2 1579   3.495   3.631   2.947 -0.7356  0.0566 -0.1574
   50G       N2 1580   3.367   3.615   2.983 -0.6762 -0.2028 -0.0576
   50G      H21 1581   3.306   3.690   3.012 -1.9568 -0.8975 -0.8121
   50G      H22 1582   3.331   3.520   2.975 -1.1134 -0.0851  0.4650
   50G       N3 1583   3.567   3.521   2.920  0.2340  0.5435  0.4006
   50G       C4 1584   3.696   3.541   2.884  0.4379 -0.3425  0.6002
   50G      C3' 1585   3.812   3.178   2.642  0.3192  0.4119 -0.4098
   50G      H3' 1586   3.865   3.250   2.579 -2.3292  1.0959 -2.0131
   50G      C2' 1587   3.694   3.241   2.715 -0.0814 -0.7361 -0.0428
   50G     H2'1 1588   3.651   3.314   2.646 -1.5773 -1.4270  0.1233
   50G      O2' 1589   3.591   3.149   2.741 -0.4018 -0.2964  0.2520
   50G     HO'2 1590   3.553   3.117   2.659  1.1144 -1.7088  0.0466
   50G      O3' 1591   3.783   3.070   2.557 -0.3448 -0.0793  0.4269
   50G      H3T 1592   3.688   3.058   2.551 -0.3329  0.2408 -3.7915
   51SOL     OW 1593   4.922   2.939  12.095 -0.3598  0.6032  0.0974
   51SOL    HW1 1594   4.876   3.017  12.064 -0.0484  1.1358  0.9429
   51SOL    HW2 1595   4.887   2.923  12.183 -0.0887  0.0692  0.1149
   52SOL     OW 1596   1.629   4.607   8.812  0.4082 -0.6223 -0.2544
   52SOL    HW1 1597   1.534   4.594   8.818  0.2962 -1.4846 -2.6251
   52SOL    HW2 1598   1.641   4.650   8.727  1.8632  3.5802  1.8276
   53SOL     OW 1599   3.577   1.065   9.738 -0.4216 -0.0820 -0.0075
   53SOL    HW1 1600   3.560   1.015   9.818 -1.3341 -0.0951 -0.1913
   53SOL    HW2 1601   3.664   1.103   9.751 -0.3838 -0.4236  0.8100
   54SOL     OW 1602   7.242   6.058   0.390 -0.1397 -0.3447 -0.1049
   54SOL    HW1 1603   7.296   6.135   0.409 -1.3287 -0.0747  2.7223
   54SOL    HW2 1604   7.208   6.031   0.475 -4.5216 -0.4417 -1.6131
   55SOL     OW 1605   7.808   5.755   7.832  0.0748  0.0401 -0.2311
   55SOL    HW1 1606   7.740   5.823   7.835  1.7369  1.7393  1.4916
   55SOL    HW2 1607   7.841   5.750   7.921  2.0406 -0.9389 -0.9636
   56SOL     OW 1608   3.661   2.333   5.875 -0.6071 -0.4925  0.1089
   56SOL    HW1 1609   3.693   2.386   5.948 -1.2487  0.1034 -0.0284
   56SOL    HW2 1610   3.691   2.244   5.895  1.2652  0.0398 -0.1001
   57SOL     OW 1611   4.335   5.139   4.416  0.0070 -0.5522 -0.6679
   57SOL    HW1 1612   4.288   5.208   4.369 -0.3050  0.5165  1.1056
   57SOL    HW2 1613   4.424   5.143   4.382 -0.2152  0.1450 -1.1933
   58SOL     OW 1614   3.254   2.182  11.201  0.2182  0.1779 -0.7558
   58SOL    HW1 1615   3.347   2.199  11.188  0.3176  1.5362  1.2840
   58SOL    HW2 1616   3.210   2.258  11.164 -0.0227 -0.0737 -0.9881
   59SOL     OW 1617   4.322   2.759   6.857 -0.7059  0.3314  0.0569
   59SOL    HW1 1618   4.359   2.805   6.781 -0.3797  0.2145  0.1427
   59SOL    HW2 1619   4.235   2.730   6.828  0.0587 -1.1771 -0.8513
   60SOL     OW 1620   2.104   1.936   7.246  0.1879 -0.0057  0.0873
   60SOL    HW1 1621   2.044   1.911   7.176  1.0070  1.0261 -1.0356
   60SOL    HW2 1622   2.157   1.858   7.261 -0.7864 -0.6192  0.4266
   61SOL     OW 1623   2.003   4.032   0.077  0.0980 -0.1543 -0.0192
   61SOL    HW1 1624   2.086   4.045   0.124 -0.4628  0.4776  0.8250
   61SOL    HW2 1625   1.962   3.957   0.121 -0.1681  0.0829  0.1458
   62SOL     OW 1626   6.092   6.208   6.351  0.0562 -0.4638  0.1133
   62SOL    HW1 1627   6.071   6.274   6.417 -1.2529 -1.4291  0.7136
   62SOL    HW2 1628   6.097   6.126   6.400  1.1745 -0.8932 -0.6842
   63SOL     OW 1629   2.296   0.050   4.187  0.6929  0.3608 -0.6621
   63SOL    HW1 1630   2.200   0.042   4.183  0.8731 -2.1989 -1.2303
   63SOL    HW2 1631   2.312   0.097   4.269 -1.0298  0.6189 -0.4254
   64SOL     OW 1632   7.396   6.169   2.889  0.2957 -0.0368 -0.3542
   64SOL    HW1 1633   7.360   6.082   2.871  1.4711 -0.7300  0.4710
   64SOL    HW2 1634   7.446   6.191   2.811  2.3703 -1.4185  0.4928
   65SOL     OW 1635   5.382   3.740   7.855 -0.1347 -0.4474  0.3327
   65SOL    HW1 1636   5.310   3.798   7.880 -0.6532 -0.3212 -1.3630
   65SOL    HW2 1637   5.415   3.775   7.773  1.2602 -1.0600  0.5946
   66SOL     OW 1638   6.736   0.995  11.799 -0.0174  0.1633  0.2023
   66SOL    HW1 1639   6.799   1.068  11.798 -0.8088  0.8932 -1.8201
   66SOL    HW2 1640   6.722   0.974  11.707  0.1150 -2.5517  0.7162
   67SOL     OW 1641   1.049   1.622   9.523  0.4460  0.5496 -0.5897
   67SOL    HW1 1642   1.008   1.647   9.440 -2.8301  0.2831  0.8317
   67SOL    HW2 1643   1.053   1.703   9.573  0.3845  0.3129 -0.1985
   68SOL     OW 1644   6.875   0.596   0.491 -0.6720  0.0127  0.2548
   68SOL    HW1 1645   6.890   0.509   0.529  0.0475 -1.2049 -2.5816
   68SOL    HW2 1646   6.961   0.638   0.494 -0.6138 -0.0866 -0.0317
   69SOL     OW 1647   3.606   5.289   6.060 -0.1839  0.5150  0.6540
   69SOL    HW1 1648   3.614   5.195   6.079  0.4848  1.0123  3.2329
   69SOL    HW2 1649   3.695   5.316   6.037 -0.3293  0.5802  0.1567
   70SOL     OW 1650   1.372   0.191  10.479  0.1419  0.0269 -0.1485
   70SOL    HW1 1651   1.332   0.278  10.480 -0.5696 -0.2929 -0.3183
   70SOL    HW2 1652   1.415   0.186  10.394 -0.2220  0.0310 -0.3328
   71SOL     OW 1653   6.356   0.834   8.918  0.0782  0.4462  1.2009
   71SOL    HW1 1654   6.295   0.908   8.911  0.2321  0.4998  0.2609
   71SOL    HW2 1655   6.441   0.872   8.896  0.3710  0.2641  2.0180
   72SOL     OW 1656   1.242   1.115   1.722 -1.0152 -0.4034  0.2867
   72SOL    HW1 1657   1.211   1.043   1.777  1.1902 -1.0974  0.7288
   72SOL    HW2 1658   1.323   1.082   1.683  0.2628  1.9251  0.7696
   73SOL     OW 1659   4.523   1.471   8.001 -0.3281  0.5499 -0.2245
   73SOL    HW1 1660   4.490   1.545   8.053  0.3327  1.0333 -0.4688
   73SOL    HW2 1661   4.580   1.512   7.937  0.2547 -0.2064 -0.1981
   74SOL     OW 1662   3.971   4.708   5.882 -0.8500 -0.0401 -0.0113
   74SOL    HW1 1663   3.998   4.797   5.860 -1.1306  0.5981  2.0442
   74SOL    HW2 1664   3.900   4.719   5.945 -1.3536 -1.7317 -0.2401
   75SOL     OW 1665   6.333   2.184   8.413  0.2419  0.1882 -0.5422
   75SOL    HW1 1666   6.354   2.251   8.348 -0.7034  0.6379 -0.3977
   75SOL    HW2 1667   6.238   2.174   8.407 -0.2076  1.7631  2.2032
   76SOL     OW 1668   0.319   2.337  10.458  0.7837 -0.3547 -0.0243
   76SOL    HW1 1669   0.270   2.408  10.418  1.0217 -0.0459  0.2211
   76SOL    HW2 1670   0.344   2.370  10.544  0.9654 -0.7046  0.0628
   77SOL     OW 1671   6.052   5.744  12.466  0.2925 -0.3531 -0.1184
   77SOL    HW1 1672   6.133   5.719  12.511  0.3540 -0.6150 -0.3686
   77SOL    HW2 1673   6.062   5.838  12.450 -0.0274 -0.1154  0.9998
   78SOL     OW 1674   2.204   0.814  11.254 -0.0744  0.0615  0.4217
   78SOL    HW1 1675   2.244   0.897  11.278  0.0692  0.0905  0.0867
   78SOL    HW2 1676   2.238   0.795  11.166  0.6048 -0.7855  0.8524
   79SOL     OW 1677   6.927   1.691   7.521  0.4904  0.2015  0.2098
   79SOL    HW1 1678   6.873   1.761   7.484  0.3508 -1.3516 -2.8879
   79SOL    HW2 1679   6.866   1.619   7.536  1.0172 -0.1213  0.8273
   80SOL     OW 1680   1.545   3.389   8.646 -0.2057 -0.3164 -0.3930
   80SOL    HW1 1681   1.497   3.411   8.726  0.6408 -0.0634  0.0637
   80SOL    HW2 1682   1.563   3.296   8.654  0.1618 -0.2257 -0.1222
   81SOL     OW 1683   5.581   2.528   4.558  0.7730 -0.2414 -0.0209
   81SOL    HW1 1684   5.630   2.567   4.630  2.4188 -1.8490 -0.1920
   81SOL    HW2 1685   5.646   2.478   4.509 -0.9275 -1.9484 -0.6507
   82SOL     OW 1686   0.727   3.558  11.160  0.1393 -0.1807  0.4263
   82SOL    HW1 1687   0.800   3.513  11.118  0.8309  2.7443 -1.8486
   82SOL    HW2 1688   0.768   3.611  11.228  0.2093  1.2992 -0.7112
   83SOL     OW 1689   6.645   3.130   2.763 -0.2660 -0.0172  0.1423
   83SOL    HW1 1690   6.574   3.066   2.772 -0.2135  0.0937  1.3993
   83SOL    HW2 1691   6.627   3.197   2.828 -1.1177  2.0731 -2.0925
   84SOL     OW 1692   6.302   0.922   5.591  0.5914 -0.3599  0.1588
   84SOL    HW1 1693   6.393   0.933   5.564  1.1449  1.4032  2.4254
   84SOL    HW2 1694   6.305   0.917   5.687 -1.7062  0.0442  0.3241
   85SOL     OW 1695   4.168   1.365   3.665  0.5000 -0.3854 -0.0694
   85SOL    HW1 1696   4.149   1.404   3.579  0.7505 -0.9353 -0.3850
   85SOL    HW2 1697   4.169   1.439   3.725 -0.4462 -0.0753 -0.4075
   86SOL     OW 1698   0.795   0.383  10.697 -0.3065  0.5338 -0.2207
   86SOL    HW1 1699   0.783   0.463  10.646 -1.1524  0.4947 -0.0914
   86SOL    HW2 1700   0.781   0.411  10.788 -2.2199 -0.0551 -0.2962
   87SOL     OW 1701   7.621   4.235   5.783  0.4978  0.7872  0.4632
   87SOL    HW1 1702   7.653   4.278   5.862  0.1409  1.6968  0.1235
   87SOL    HW2 1703   7.697   4.231   5.725  0.6423  0.5460  0.6674
   88SOL     OW 1704   3.864   3.877   9.945 -0.4751  0.4745 -0.4101
   88SOL    HW1 1705   3.795   3.842  10.001  0.6134 -0.1818  0.5886
   88SOL    HW2 1706   3.933   3.811   9.949  0.6983  1.6523 -0.3811
   89SOL     OW 1707   0.325   7.786   0.282  0.8590 -0.1582 -0.4998
   89SOL    HW1 1708   0.248   7.745   0.321  1.5841  1.2631  2.7731
   89SOL    HW2 1709   0.398   7.731   0.310  1.3020  0.1163 -1.0995
   90SOL     OW 1710   6.686   7.169   4.831 -0.2583  0.2351  0.3634
   90SOL    HW1 1711   6.715   7.206   4.748  1.2479  0.0688  0.7862
   90SOL    HW2 1712   6.730   7.222   4.898 -0.3865 -0.4700  1.0227
   91SOL     OW 1713   7.205   3.586   7.969  0.4165  0.3274 -1.0667
   91SOL    HW1 1714   7.112   3.589   7.994  0.6479 -0.1664 -0.1112
   91SOL    HW2 1715   7.204   3.549   7.881 -0.2640 -0.3700 -0.7908
   92SOL     OW 1716   7.300   7.071   8.135 -0.0011  0.5204 -0.3661
   92SOL    HW1 1717   7.311   7.140   8.070  0.4803 -0.1845 -1.0501
   92SOL    HW2 1718   7.379   7.018   8.129 -1.3989 -1.6148 -1.7303
   93SOL     OW 1719   7.022   6.442   0.752  0.0840 -0.0629  0.7918
   93SOL    HW1 1720   7.043   6.377   0.685 -1.6629 -0.9112  1.0091
   93SOL    HW2 1721   7.066   6.522   0.723  0.6011 -0.8086 -0.5456
   94SOL     OW 1722   1.262   1.953   0.456  0.9298 -0.3770 -0.2583
   94SOL    HW1 1723   1.345   2.000   0.449  0.2082  0.7584 -2.0346
   94SOL    HW2 1724   1.199   2.009   0.410 -0.8086 -1.2665  0.9007
   95SOL     OW 1725   6.191   5.744   6.386  0.1752 -0.3075 -0.1983
   95SOL    HW1 1726   6.109   5.701   6.411 -1.4904  2.1521 -1.1315
   95SOL    HW2 1727   6.185   5.753   6.291  0.9318  1.0562 -0.1297
   96SOL     OW 1728   2.736   1.251  10.500  0.2195  0.6067  0.3944
   96SOL    HW1 1729   2.716   1.315  10.432  1.9151 -0.5075 -1.2587
   96SOL    HW2 1730   2.659   1.194  10.503  0.8776 -0.5518 -2.1558
   97SOL     OW 1731   4.200   4.610   2.534  0.3708  0.4602 -0.0516
   97SOL    HW1 1732   4.171   4.609   2.443  0.8270  2.4353 -0.2540
   97SOL    HW2 1733   4.294   4.592   2.531  0.1682 -0.7488  0.1702
   98SOL     OW 1734   0.976   7.720   2.917 -0.5172  0.7212 -0.7009
   98SOL    HW1 1735   0.907   7.657   2.896 -0.9082  2.0185 -3.8699
   98SOL    HW2 1736   0.931   7.803   2.927  0.2187  0.9163  1.3372
   99SOL     OW 1737   1.065   0.013  11.885  0.0942 -0.2392  0.5267
   99SOL    HW1 1738   0.986   0.053  11.850  0.0226 -0.0267  0.9196
   99SOL    HW2 1739   1.136   0.071  11.856 -0.2186  1.6763  3.1653
  100SOL     OW 1740   7.951   5.032   0.921 -0.1776  0.4177 -0.5288
  100SOL    HW1 1741   8.019   4.966   0.906  0.7101  1.5498 -1.7518
  100SOL    HW2 1742   7.938   5.032   1.016  0.7194 -0.6092 -0.3812
  101SOL     OW 1743   5.265   5.906  12.428  0.2761 -0.1154 -0.1259
  101SOL    HW1 1744   5.209   5.939  12.499  1.4391  2.5480 -0.3523
  101SOL    HW2 1745   5.350   5.893  12.470  0.6548  0.2902 -0.7664
  102SOL     OW 1746   5.700   1.275   2.763 -0.1598  0.5100 -0.3519
  102SOL    HW1 1747   5.657   1.265   2.678  0.5210 -1.1330 -0.5581
  102SOL    HW2 1748   5.790   1.245   2.747 -0.4720 -1.5480  1.2911
  103SOL     OW 1749   3.399   2.539   1.441  0.2720 -0.3707  0.2731
  103SOL    HW1 1750   3.335   2.610   1.444 -0.7814 -1.2541 -0.2744
  103SOL    HW2 1751   3.397   2.509   1.350  0.1443 -1.5693  0.6510
  104SOL     OW 1752   2.173   0.509   8.015 -0.0104 -0.0526  0.4202
  104SOL    HW1 1753   2.139   0.514   8.104  0.9531  0.0205  0.7989
  104SOL    HW2 1754   2.103   0.543   7.960 -0.7761 -0.4933  1.1063
  105SOL     OW 1755   5.458   7.575   1.535  0.0510 -0.1897 -0.2128
  105SOL    HW1 1756   5.511   7.622   1.599  0.0725 -1.5214  0.7900
  105SOL    HW2 1757   5.440   7.639   1.466  2.2720  0.5213 -0.1840
  106SOL     OW 1758   0.828   2.670   4.438  0.0834 -0.0001  0.4134
  106SOL    HW1 1759   0.737   2.642   4.437  0.4680 -1.2898  0.1214
  106SOL    HW2 1760   0.869   2.617   4.506  0.6919  0.3080  0.2978
  107SOL     OW 1761   3.493   7.775   0.596  0.0052 -0.0255  0.1593
  107SOL    HW1 1762   3.534   7.690   0.610  0.9972  0.3589 -0.3651
  107SOL    HW2 1763   3.533   7.808   0.516 -1.5882  0.2115 -0.5926
  108SOL     OW 1764   6.017   6.891   8.260 -0.1356  0.0123  0.4034
  108SOL    HW1 1765   5.928   6.858   8.251 -0.4175  0.7986  0.2258
  108SOL    HW2 1766   6.023   6.963   8.197  0.5894  0.0430  0.4955
  109SOL     OW 1767   6.029   2.660   3.359 -0.1211 -0.0163  0.7198
  109SOL    HW1 1768   6.046   2.745   3.399 -1.9793  0.3466  0.8482
  109SOL    HW2 1769   6.115   2.628   3.332  0.6463  1.7788  0.9054
  110SOL     OW 1770   4.461   3.719   0.004 -0.2173 -0.7319 -0.3117
  110SOL    HW1 1771   4.407   3.789   0.041 -1.2350  0.4657 -3.7177
  110SOL    HW2 1772   4.550   3.752   0.010 -0.4957  0.0294 -0.2289
  111SOL     OW 1773   1.869   3.664   9.635  0.0150  0.3029  0.1990
  111SOL    HW1 1774   1.779   3.647   9.664  0.3379 -0.2635  0.9019
  111SOL    HW2 1775   1.889   3.751   9.670 -0.9148  1.3150 -1.6246
  112SOL     OW 1776   4.597   6.192   3.115 -0.0198 -0.5381 -0.3955
  112SOL    HW1 1777   4.574   6.278   3.080 -0.0610  0.2347  1.4112
  112SOL    HW2 1778   4.545   6.184   3.195  2.4452 -0.7334  1.3015
  113SOL     OW 1779   3.851   4.777   3.791 -0.2879  0.7865 -0.4470
  113SOL    HW1 1780   3.822   4.810   3.876  1.8213 -0.2697  0.7677
  113SOL    HW2 1781   3.911   4.705   3.812 -0.3401 -0.0537 -2.8581
  114SOL     OW 1782   4.564   2.721   8.317 -0.0282 -0.9319  0.0473
  114SOL    HW1 1783   4.626   2.659   8.279 -0.6189 -0.0574 -2.5594
  114SOL    HW2 1784   4.500   2.736   8.248 -0.9092  1.2029  1.2224
  115SOL     OW 1785   6.512   0.609   6.090  0.1481  0.1223 -0.2236
  115SOL    HW1 1786   6.495   0.549   6.018  1.5428  1.1384 -1.4728
  115SOL    HW2 1787   6.458   0.576   6.162  0.1671 -2.0600 -1.1182
  116SOL     OW 1788   3.252   2.260   5.852 -0.1736  0.2074 -0.4228
  116SOL    HW1 1789   3.222   2.332   5.796 -0.6214  1.4404  1.3255
  116SOL    HW2 1790   3.316   2.301   5.910 -0.3317 -0.8536  0.5185
  117SOL     OW 1791   5.233   4.885   6.676  0.1261  0.3465 -0.2652
  117SOL    HW1 1792   5.252   4.819   6.743  0.3513 -0.0612 -0.7228
  117SOL    HW2 1793   5.319   4.912   6.645  0.0793  1.7076  0.7203
  118SOL     OW 1794   0.700   5.863  10.698 -0.1336 -0.2250 -0.1778
  118SOL    HW1 1795   0.767   5.834  10.760  0.8028  0.2453 -0.9302
  118SOL    HW2 1796   0.618   5.855  10.746  0.5024 -0.4036  0.9283
  119SOL     OW 1797   0.484   0.511   6.712 -0.8536  0.2191  0.5049
  119SOL    HW1 1798   0.396   0.547   6.713 -0.9841 -0.0602 -0.2120
  119SOL    HW2 1799   0.472   0.418   6.732 -1.1540 -0.6181 -2.8701
  120SOL     OW 1800   7.081   4.620   0.795 -0.2865  0.0405  0.1037
  120SOL    HW1 1801   7.163   4.659   0.828  0.2759 -0.8813 -0.1545
  120SOL    HW2 1802   7.080   4.532   0.834 -0.4655 -0.4477 -0.9680
  121SOL     OW 1803   4.065   7.814  10.390 -0.1375 -0.1041 -0.1267
  121SOL    HW1 1804   4.138   7.802  10.329  0.3106 -1.4735  0.6283
  121SOL    HW2 1805   4.034   7.725  10.408 -2.4598  0.4876 -0.9448
  122SOL     OW 1806   1.656   0.555   3.888 -0.4052 -0.6488  0.0696
  122SOL    HW1 1807   1.652   0.624   3.955 -0.1765 -0.4081 -0.1626
  122SOL    HW2 1808   1.566   0.525   3.879 -0.5952 -0.0313 -0.1874
  123SOL     OW 1809   3.870   7.860  10.666  0.0397 -0.2933 -0.1928
  123SOL    HW1 1810   3.922   7.881  10.588 -4.0089 -0.5980 -3.2873
  123SOL    HW2 1811   3.808   7.932  10.674  1.0393  0.3706  3.7104
  124SOL     OW 1812   7.877   4.599  11.436  0.2507  0.4899 -0.1446
  124SOL    HW1 1813   7.941   4.528  11.438  0.1263  0.3950  0.9256
  124SOL    HW2 1814   7.801   4.562  11.391  0.4482  0.1754 -0.2200
  125SOL     OW 1815   4.308   0.129   6.255 -0.3245  0.0067  0.5120
  125SOL    HW1 1816   4.250   0.163   6.322 -1.3262 -1.9858  0.7421
  125SOL    HW2 1817   4.283   0.176   6.175 -0.8434  0.6226  1.0324
  126SOL     OW 1818   7.912   6.091   5.629  0.3965 -0.1520 -0.1980
  126SOL    HW1 1819   7.931   6.124   5.717 -1.3420  1.3441 -0.3172
  126SOL    HW2 1820   7.821   6.063   5.633 -0.1715  1.2377 -1.8301
  127SOL     OW 1821   0.937   7.295   7.361  0.2305  0.6372 -0.2376
  127SOL    HW1 1822   1.015   7.296   7.306  0.5803 -1.9184  0.1309
  127SOL    HW2 1823   0.864   7.289   7.298  0.5097 -0.2154 -0.4836
  128SOL     OW 1824   4.126   1.621   7.076  0.3054 -0.3519 -0.5139
  128SOL    HW1 1825   4.107   1.566   7.000  0.6650  1.3277 -1.8637
  128SOL    HW2 1826   4.130   1.710   7.042 -0.6653  0.6136  1.6718
  129SOL     OW 1827   4.299   6.499   8.059  0.5267  0.0765 -0.3292
  129SOL    HW1 1828   4.232   6.568   8.057  0.5902  0.2153  1.2156
  129SOL    HW2 1829   4.296   6.465   8.149  2.6576  0.2105 -0.1506
  130SOL     OW 1830   7.950   6.774   0.077 -0.6383  0.2721  0.2111
  130SOL    HW1 1831   7.946   6.680   0.090  1.9142 -0.2951 -2.2657
  130SOL    HW2 1832   7.880   6.793   0.015  0.9105 -0.6532 -1.9349
  131SOL     OW 1833   3.805   1.580   6.508  0.4663 -0.0965  0.0368
  131SOL    HW1 1834   3.836   1.640   6.576  0.8896  0.0496 -0.2785
  131SOL    HW2 1835   3.766   1.507   6.555  1.8546 -0.5908  0.4637
  132SOL     OW 1836   2.286   6.124  10.959 -0.1978  0.3535 -0.2850
  132SOL    HW1 1837   2.322   6.084  11.038 -0.8977  1.1621  0.4592
  132SOL    HW2 1838   2.282   6.217  10.979  1.4597  0.8737 -1.9969
  133SOL     OW 1839   2.699   2.670   8.831  0.2716  0.0416  0.4072
  133SOL    HW1 1840   2.742   2.672   8.746  0.5924  1.1975  0.5786
  133SOL    HW2 1841   2.644   2.749   8.832  0.1736 -0.0266  1.2190
  134SOL     OW 1842   0.107   2.676   8.500 -0.5113  0.1748 -0.0587
  134SOL    HW1 1843   0.026   2.693   8.548 -0.2792  1.0271  0.0494
  134SOL    HW2 1844   0.173   2.730   8.543  0.1605 -0.6277 -0.0521
  135SOL     OW 1845   0.299   1.114   3.274 -0.0305 -0.1432  0.1252
  135SOL    HW1 1846   0.366   1.164   3.229  1.1507 -0.4913  1.4289
  135SOL    HW2 1847   0.240   1.084   3.205  0.5560  1.0551 -0.9261
  136SOL     OW 1848   2.724   6.197   6.844 -0.3702 -0.4372  0.3448
  136SOL    HW1 1849   2.633   6.182   6.871  0.0995 -1.4106  1.4917
  136SOL    HW2 1850   2.765   6.111   6.851  0.3432 -0.2831 -1.4331
  137SOL     OW 1851   2.693   1.323   1.197 -0.0676 -0.0404  0.2223
  137SOL    HW1 1852   2.616   1.283   1.238 -0.9671  0.4529 -0.9048
  137SOL    HW2 1853   2.657   1.369   1.121  1.3471  0.2665 -0.2809
  138SOL     OW 1854   2.184   2.882   9.413  0.0055 -0.0160 -0.1554
  138SOL    HW1 1855   2.119   2.910   9.348 -0.8660  0.5702  0.9189
  138SOL    HW2 1856   2.268   2.888   9.367 -0.3899  2.0513 -0.7388
  139SOL     OW 1857   0.355   1.648   3.968  0.0278 -0.0330  0.7149
  139SOL    HW1 1858   0.404   1.730   3.965 -1.3204  0.8151  0.9619
  139SOL    HW2 1859   0.272   1.668   3.925  0.5040 -1.8983 -1.2617
  140SOL     OW 1860   1.913   1.789   4.085  0.4156  0.0390  0.1422
  140SOL    HW1 1861   1.906   1.712   4.027  0.4762 -0.1582  0.3938
  140SOL    HW2 1862   1.830   1.834   4.075  0.6495  0.3278 -0.5515
  141SOL     OW 1863   4.798   0.848   6.438 -0.3190 -0.6498 -0.3366
  141SOL    HW1 1864   4.794   0.935   6.400 -0.1495 -0.1657  0.7017
  141SOL    HW2 1865   4.718   0.842   6.491 -0.8720 -1.5425 -1.2513
  142SOL     OW 1866   0.351   2.441   4.097 -0.3272 -0.2126  0.1572
  142SOL    HW1 1867   0.442   2.423   4.121 -0.4886 -2.2341 -0.5401
  142SOL    HW2 1868   0.307   2.458   4.180  0.7010  1.0928  0.4800
  143SOL     OW 1869   6.916   5.887   8.879 -0.3850  0.0402 -0.8720
  143SOL    HW1 1870   7.002   5.865   8.843 -0.7733 -0.6725 -1.3850
  143SOL    HW2 1871   6.886   5.961   8.827  0.5607  1.3107  0.3073
  144SOL     OW 1872   7.060   7.082   0.749  0.0054  0.4271 -0.1328
  144SOL    HW1 1873   6.972   7.098   0.784  0.0172 -1.9606  1.1646
  144SOL    HW2 1874   7.108   7.043   0.821  1.2145 -1.1204 -1.7065
  145SOL     OW 1875   7.722   3.816   6.683 -0.4090  0.1117  0.1943
  145SOL    HW1 1876   7.806   3.826   6.637  0.2298 -1.0834  1.0411
  145SOL    HW2 1877   7.697   3.905   6.705  0.3428  0.5408 -0.5796
  146SOL     OW 1878   2.212   6.926   1.131 -0.4067 -0.3945  0.0509
  146SOL    HW1 1879   2.290   6.961   1.087 -0.5378  1.9960  1.5352
  146SOL    HW2 1880   2.247   6.868   1.198  0.0773 -0.0234  0.1314
  147SOL     OW 1881   0.895   7.843  10.021 -0.3539 -0.6799  0.3979
  147SOL    HW1 1882   0.908   7.936  10.040  0.5132 -0.6964 -0.1016
  147SOL    HW2 1883   0.901   7.800  10.106 -3.0869 -0.0688  1.0195
  148SOL     OW 1884   5.270   4.888   0.302 -0.1870  0.3007  0.8238
  148SOL    HW1 1885   5.200   4.876   0.238  0.7826  0.7291 -0.3802
  148SOL    HW2 1886   5.288   4.983   0.299  1.0919  0.0701  0.3440
  149SOL     OW 1887   2.638   7.721   1.462  0.1291 -0.1220 -0.6317
  149SOL    HW1 1888   2.734   7.718   1.467  0.0664 -0.8093  0.6665
  149SOL    HW2 1889   2.618   7.709   1.370  1.3154  0.8354 -1.0393
  150SOL     OW 1890   5.749   6.929   8.140  0.4163 -0.2216 -0.0946
  150SOL    HW1 1891   5.687   6.958   8.073  0.4516 -0.1783 -0.1083
  150SOL    HW2 1892   5.734   6.989   8.213 -0.3234 -0.8851  0.3194
  151SOL     OW 1893   3.405   6.826   4.355 -0.2881  0.0123  0.0602
  151SOL    HW1 1894   3.435   6.737   4.375 -1.1320 -0.6208 -1.3440
  151SOL    HW2 1895   3.454   6.850   4.277 -0.4842  0.5569  0.1038
  152SOL     OW 1896   4.005   1.796   2.673 -0.2165 -0.6203  0.1909
  152SOL    HW1 1897   4.032   1.713   2.713 -1.2007 -1.5355 -0.9503
  152SOL    HW2 1898   3.935   1.828   2.730  0.3909 -0.3862  0.8194
  153SOL     OW 1899   3.411   7.492  11.326  0.3992 -0.5228 -0.5409
  153SOL    HW1 1900   3.327   7.532  11.347  0.4593 -1.7733  2.7204
  153SOL    HW2 1901   3.404   7.468  11.234 -2.1286  0.9615 -0.8239
  154SOL     OW 1902   7.666   3.632  11.206 -0.3834 -0.2243 -0.2542
  154SOL    HW1 1903   7.634   3.587  11.128 -1.6786  0.2490 -0.0261
  154SOL    HW2 1904   7.752   3.594  11.222 -0.1727 -0.4757 -1.7948
  155SOL     OW 1905   6.260   4.901   8.746 -0.0817  0.3118 -0.1072
  155SOL    HW1 1906   6.353   4.902   8.771  0.0049  0.5961 -0.4230
  155SOL    HW2 1907   6.215   4.865   8.822  0.1919  1.0026  0.4002
  156SOL     OW 1908   3.542   1.691   2.956 -0.0231 -0.2370  0.1737
  156SOL    HW1 1909   3.489   1.623   2.997 -1.0400  0.8366  0.6918
  156SOL    HW2 1910   3.501   1.773   2.983  1.5613  0.6185  0.0995
  157SOL     OW 1911   3.044   2.546   8.933  0.1098 -0.5632 -0.0896
  157SOL    HW1 1912   3.087   2.630   8.914  0.3879 -0.2005  1.8725
  157SOL    HW2 1913   2.951   2.562   8.917  0.3891 -0.5783 -1.8891
  158SOL     OW 1914   0.861   4.626  10.379 -0.0917  0.4271 -0.5940
  158SOL    HW1 1915   0.810   4.598  10.455 -1.5202 -0.4081 -1.8094
  158SOL    HW2 1916   0.798   4.671  10.323  1.3038  2.5714 -0.5415
  159SOL     OW 1917   3.482   0.488  12.127 -0.4773  0.0305  0.0434
  159SOL    HW1 1918   3.504   0.465  12.036 -1.1079  1.6137 -0.5424
  159SOL    HW2 1919   3.422   0.419  12.155  1.3003 -1.6283  0.0018
  160SOL     OW 1920   7.930   4.535   1.362 -0.2825  0.1583 -0.5153
  160SOL    HW1 1921   7.928   4.533   1.267 -3.3338 -1.9146 -0.5335
  160SOL    HW2 1922   8.001   4.476   1.386 -2.6398 -3.4930 -1.6754
  161SOL     OW 1923   3.889   0.639   4.065 -0.4427 -0.0447  0.1907
  161SOL    HW1 1924   3.970   0.652   4.015 -0.7717  0.2787 -0.2693
  161SOL    HW2 1925   3.884   0.544   4.076 -1.0938 -0.2659 -1.6668
  162SOL     OW 1926   2.266   6.290   7.450  0.6165  0.3030 -0.2773
  162SOL    HW1 1927   2.227   6.314   7.366 -1.6676 -0.5904  0.4526
  162SOL    HW2 1928   2.332   6.223   7.429  0.5661  0.5993 -1.3946
  163SOL     OW 1929   0.099   5.398   3.296  0.2151  0.8271  0.1168
  163SOL    HW1 1930   0.038   5.387   3.222  3.0693  0.4538 -2.3626
  163SOL    HW2 1931   0.098   5.314   3.341  1.6199 -0.5459 -2.2203
  164SOL     OW 1932   7.020   2.867  10.748  0.4532  0.3506 -0.3987
  164SOL    HW1 1933   7.002   2.952  10.788  0.9505 -0.2730  1.2392
  164SOL    HW2 1934   7.090   2.885  10.685  0.0073  1.2778 -0.6555
  165SOL     OW 1935   5.188   4.686   3.228  0.1808 -0.1892  0.1995
  165SOL    HW1 1936   5.096   4.678   3.201  0.3638  1.6068 -1.2221
  165SOL    HW2 1937   5.198   4.626   3.301 -1.6324 -1.8766 -0.8512
  166SOL     OW 1938   1.639   1.900   9.021  0.0581  0.3243 -0.5382
  166SOL    HW1 1939   1.661   1.975   9.076 -0.2335 -0.6917  1.0241
  166SOL    HW2 1940   1.572   1.852   9.070  0.2534 -0.9753 -1.4797
  167SOL     OW 1941   2.589   4.156   3.488 -0.4135 -0.2059 -0.1421
  167SOL    HW1 1942   2.659   4.092   3.491 -0.4516 -0.2142  1.6544
  167SOL    HW2 1943   2.631   4.239   3.510 -0.6487  0.1276 -0.9012
  168SOL     OW 1944   4.321   3.210  10.555 -0.1231  0.6749 -0.5409
  168SOL    HW1 1945   4.229   3.187  10.544  0.0577 -0.8260  0.6998
  168SOL    HW2 1946   4.327   3.244  10.644  0.4974  0.8272 -0.6369
  169SOL     OW 1947   5.395   5.364  12.294 -0.4673 -0.0856 -0.2299
  169SOL    HW1 1948   5.470   5.362  12.354  1.3644 -0.6560 -2.4022
  169SOL    HW2 1949   5.326   5.317  12.341  1.6351 -2.6359  0.5435
  170SOL     OW 1950   6.385   5.119   0.096 -0.4456 -0.0086  0.5434
  170SOL    HW1 1951   6.328   5.048   0.069 -1.7272  0.5507  1.6106
  170SOL    HW2 1952   6.327   5.195   0.103  0.3959  0.5771  1.7250
  171SOL     OW 1953   7.980   5.998   5.233 -0.0526  0.2500  0.1319
  171SOL    HW1 1954   8.025   5.992   5.317 -0.2812 -0.5032  0.2141
  171SOL    HW2 1955   7.907   5.936   5.240  0.1298 -0.0900 -0.7413
  172SOL     OW 1956   1.455   3.872   9.780 -0.0448 -0.1768 -0.0796
  172SOL    HW1 1957   1.491   3.838   9.699 -0.5434  2.0993 -1.3429
  172SOL    HW2 1958   1.457   3.967   9.770 -2.1507  0.1435  1.6508
  173SOL     OW 1959   6.620   7.451  11.520 -0.3100 -0.1884  0.2359
  173SOL    HW1 1960   6.703   7.405  11.508  0.8564  1.8992 -0.0517
  173SOL    HW2 1961   6.584   7.414  11.601 -0.3745 -2.8622 -0.8762
  174SOL     OW 1962   2.169   2.672   7.778  0.4847  0.0409  0.1858
  174SOL    HW1 1963   2.242   2.720   7.815  0.2099  0.5740  0.0497
  174SOL    HW2 1964   2.092   2.704   7.825  0.3334 -0.4915  0.3080
  175SOL     OW 1965   5.319   3.083   0.062 -0.1383  0.5720  0.5489
  175SOL    HW1 1966   5.374   3.076  -0.016 -0.7168 -1.1430  0.2532
  175SOL    HW2 1967   5.258   3.154   0.042  1.6292  2.2235  0.7136
  176SOL     OW 1968   2.515   1.865   4.390  0.2977 -0.3756  0.5566
  176SOL    HW1 1969   2.522   1.790   4.330 -0.2376 -0.0947  0.1404
  176SOL    HW2 1970   2.575   1.930   4.354 -1.3426  0.4926 -0.7337
  177SOL     OW 1971   5.029   7.354   4.484 -0.0781 -0.3996 -0.3752
  177SOL    HW1 1972   5.057   7.284   4.543 -0.9534 -1.4343 -1.1737
  177SOL    HW2 1973   5.002   7.310   4.404 -0.9124  0.8281 -0.7993
  178SOL     OW 1974   4.214   2.213   3.114 -0.2721 -0.1779 -0.2120
  178SOL    HW1 1975   4.300   2.170   3.111 -0.3888 -0.5325  1.1385
  178SOL    HW2 1976   4.229   2.294   3.162 -1.2326 -1.6827  2.8729
  179SOL     OW 1977   1.082   4.771   7.402  0.3604 -0.0050  0.0768
  179SOL    HW1 1978   1.134   4.691   7.410  2.5592  1.2121 -0.9218
  179SOL    HW2 1979   1.000   4.743   7.362  0.3631 -1.9602  1.2959
  180SOL     OW 1980   4.017   7.684   0.809 -0.2504  0.0601  0.5662
  180SOL    HW1 1981   4.003   7.765   0.858 -2.5489 -0.4039  0.7934
  180SOL    HW2 1982   3.984   7.703   0.721  2.4580  0.4057 -0.4853
  181SOL     OW 1983   2.890   0.813   8.530  0.4533  0.6190  0.0347
  181SOL    HW1 1984   2.901   0.720   8.514 -1.7863  0.7048 -2.8682
  181SOL    HW2 1985   2.814   0.819   8.588  1.4795  0.6452  1.4121
  182SOL     OW 1986   5.172   3.525  10.414  0.0691  0.1149  1.0945
  182SOL    HW1 1987   5.130   3.449  10.373  0.1366 -0.3943  1.9516
  182SOL    HW2 1988   5.266   3.506  10.407  0.1091  0.4530  0.6908
  183SOL     OW 1989   2.616   4.755   8.533 -0.0759  0.3037 -0.4878
  183SOL    HW1 1990   2.655   4.763   8.620  0.1825  0.1254 -0.5846
  183SOL    HW2 1991   2.688   4.723   8.478  0.2459  2.0131 -1.1188
  184SOL     OW 1992   4.894   3.157   6.816  0.1406 -0.1376 -0.4242
  184SOL    HW1 1993   4.863   3.110   6.738  0.3448 -2.0023  0.5701
  184SOL    HW2 1994   4.815   3.174   6.867  0.1863 -0.2725 -0.3109
  185SOL     OW 1995   4.125   0.931  11.560  0.0205 -0.5806 -0.3249
  185SOL    HW1 1996   4.055   0.995  11.548  0.2290 -0.3760 -0.4595
  185SOL    HW2 1997   4.171   0.961  11.639 -0.6627 -1.2906  0.3603
  186SOL     OW 1998   7.632   6.596   2.907  0.0004  0.2622 -0.0122
  186SOL    HW1 1999   7.666   6.509   2.886  0.3542  0.5135 -0.5222
  186SOL    HW2 2000   7.710   6.652   2.910 -0.2982  0.7301 -0.5862
  187SOL     OW 2001   4.789   1.629   0.290  0.0480 -0.2578 -0.0538
  187SOL    HW1 2002   4.848   1.704   0.289  0.2299 -0.4004 -0.1402
  187SOL    HW2 2003   4.751   1.626   0.203  0.8956 -0.9292 -0.4275
  188SOL     OW 2004   2.600   1.566  11.230  0.0633  0.4589  0.1232
  188SOL    HW1 2005   2.601   1.471  11.240  2.1916  0.2934 -1.1341
  188SOL    HW2 2006   2.584   1.599  11.319 -0.1801 -1.0533  0.6716
  189SOL     OW 2007   1.845   7.084   4.020  0.2365 -0.2791 -0.2066
  189SOL    HW1 2008   1.782   7.089   3.948 -0.4570 -0.3030  0.3836
  189SOL    HW2 2009   1.881   7.173   4.027  0.2298 -0.2534 -0.5165
  190SOL     OW 2010   3.359   5.324   9.262 -0.2872  0.3805  0.2142
  190SOL    HW1 2011   3.350   5.252   9.199 -1.2135  1.7366 -1.2849
  190SOL    HW2 2012   3.384   5.282   9.344 -1.4709 -1.7179 -0.4434
  191SOL     OW 2013   0.736   5.871   6.126  0.4141  0.7127  0.0738
  191SOL    HW1 2014   0.783   5.812   6.067 -0.0022  1.4499 -1.0310
  191SOL    HW2 2015   0.800   5.938   6.149  0.1593  1.2539 -0.7595
  192SOL     OW 2016   1.164   3.438   8.766  0.5438 -0.0566  0.4574
  192SOL    HW1 2017   1.249   3.462   8.803  1.5472 -0.5267 -1.4213
  192SOL    HW2 2018   1.147   3.505   8.700  0.1897 -0.7966 -0.2158
  193SOL     OW 2019   1.676   3.945   7.880 -0.2736  0.6482 -0.5459
  193SOL    HW1 2020   1.624   3.970   7.803 -1.0844  0.8866  0.0752
  193SOL    HW2 2021   1.734   3.875   7.848  0.9975  2.2501 -1.9448
  194SOL     OW 2022   7.782   3.223   0.929  0.3255  0.4645  0.0786
  194SOL    HW1 2023   7.772   3.304   0.979 -0.6588 -0.2654  1.1095
  194SOL    HW2 2024   7.736   3.240   0.847  0.3761  1.0396  0.1655
  195SOL     OW 2025   3.853   2.110   3.640  0.2299  0.9528  0.3994
  195SOL    HW1 2026   3.887   2.134   3.554  2.2892 -1.6738  0.3700
  195SOL    HW2 2027   3.867   2.188   3.694 -0.4373  2.3905 -1.3925
  196SOL     OW 2028   7.913   3.883   2.008 -0.1096 -0.2501  0.1944
  196SOL    HW1 2029   7.846   3.875   2.076  1.4346 -1.6658  1.6683
  196SOL    HW2 2030   7.923   3.793   1.974 -0.9847  0.4511 -2.1128
  197SOL     OW 2031   5.297   0.583   6.462 -0.8719  0.0434 -0.0367
  197SOL    HW1 2032   5.255   0.545   6.384 -0.2313 -0.1671 -0.2904
  197SOL    HW2 2033   5.226   0.594   6.525 -0.9989 -2.2811  0.3193
  198SOL     OW 2034   0.561   2.366   0.669 -0.3135 -0.0957 -0.6001
  198SOL    HW1 2035   0.595   2.455   0.662  0.2607 -0.1998  0.5474
  198SOL    HW2 2036   0.556   2.350   0.763  0.1804 -1.4895 -0.7856
  199SOL     OW 2037   4.930   5.604   3.103 -0.6079 -0.1665 -0.2151
  199SOL    HW1 2038   5.017   5.636   3.128 -0.0318 -1.2800 -0.7141
  199SOL    HW2 2039   4.881   5.682   3.080  0.4298  0.4428 -0.4034
  200SOL     OW 2040   1.013   6.174   5.887 -0.3706 -0.3758  0.5900
  200SOL    HW1 2041   1.097   6.174   5.842 -0.7132  0.4322 -0.0855
  200SOL    HW2 2042   0.986   6.266   5.887 -0.7449 -0.4675  1.7740
  201SOL     OW 2043   7.817   0.608   1.744  0.5342 -0.1574  0.2507
  201SOL    HW1 2044   7.866   0.686   1.716 -0.8376  0.8544  0.5727
  201SOL    HW2 2045   7.818   0.612   1.839 -0.4303  0.0416  0.2545
  202SOL     OW 2046   4.710   1.984  10.221  0.1926  0.1004 -0.1145
  202SOL    HW1 2047   4.790   1.932  10.218 -0.0182 -0.4835  2.0416
  202SOL    HW2 2048   4.735   2.069  10.186  1.3388 -0.5317 -0.8961
  203SOL     OW 2049   1.849   1.096   1.139  0.7875 -0.2054  0.0723
  203SOL    HW1 2050   1.862   1.123   1.048 -1.1250 -1.4619 -0.6370
  203SOL    HW2 2051   1.923   1.039   1.157  1.4975  0.5104 -0.4973
  204SOL     OW 2052   7.827   7.272  10.134 -0.0655 -1.0309 -0.7235
  204SOL    HW1 2053   7.750   7.235  10.177 -0.5132  1.9401  1.3597
  204SOL    HW2 2054   7.899   7.214  10.156 -0.6334 -0.6074  2.7010
  205SOL     OW 2055   1.474   4.295   8.730 -0.4462  0.2831 -0.7792
  205SOL    HW1 2056   1.523   4.214   8.743 -2.0362 -0.4764  1.2044
  205SOL    HW2 2057   1.416   4.276   8.656 -0.0944 -0.0228 -0.9788
  206SOL     OW 2058   1.822   3.525   8.005  0.0661  0.1103 -0.3560
  206SOL    HW1 2059   1.787   3.560   8.086 -1.7292  0.6461 -1.3184
  206SOL    HW2 2060   1.813   3.430   8.014 -1.9583  0.2376 -0.6735
  207SOL     OW 2061   6.969   5.374   7.501 -0.0836  0.3131  0.6461
  207SOL    HW1 2062   6.995   5.446   7.558  1.7528  0.5097 -0.3453
  207SOL    HW2 2063   6.980   5.296   7.555  1.7534  0.4792  0.6004
  208SOL     OW 2064   2.715   0.261   7.845 -0.6719  0.0982  0.4335
  208SOL    HW1 2065   2.753   0.181   7.809 -2.0451 -1.9506  3.1671
  208SOL    HW2 2066   2.733   0.327   7.779  0.9617 -2.3237 -1.7748
  209SOL     OW 2067   2.343   1.470   5.557 -0.4395 -0.3854 -0.1242
  209SOL    HW1 2068   2.303   1.556   5.538  1.2993  0.5537  0.2288
  209SOL    HW2 2069   2.278   1.407   5.527 -0.7459  1.0382 -2.8206
  210SOL     OW 2070   5.691   1.791   3.691  0.1977 -0.6334 -0.3705
  210SOL    HW1 2071   5.601   1.817   3.669 -0.1028 -1.2940  0.0325
  210SOL    HW2 2072   5.681   1.707   3.734  1.0053 -0.6248 -0.1563
  211SOL     OW 2073   2.165   6.626   4.212  0.6365 -0.1297  0.4437
  211SOL    HW1 2074   2.246   6.580   4.190 -0.1585 -2.3634  1.9280
  211SOL    HW2 2075   2.096   6.561   4.202 -0.5271  0.5942  2.8872
  212SOL     OW 2076   6.395   4.238   0.797  0.4603  0.2909  0.4766
  212SOL    HW1 2077   6.472   4.287   0.769  1.2837 -0.7786  0.8131
  212SOL    HW2 2078   6.430   4.166   0.850 -0.4405 -2.1205 -1.9306
  213SOL     OW 2079   7.512   0.058   0.536  0.3161  0.6836  0.2693
  213SOL    HW1 2080   7.434   0.003   0.541  0.5582  0.3990  1.0807
  213SOL    HW2 2081   7.487   0.139   0.580  0.7972  0.1896  1.4921
  214SOL     OW 2082   7.118   4.666   2.665  0.0670 -0.1352 -0.2200
  214SOL    HW1 2083   7.117   4.575   2.633  0.7991 -0.0657 -0.4768
  214SOL    HW2 2084   7.188   4.707   2.615  0.2448  0.3770  0.4400
  215SOL     OW 2085   5.519   6.125   8.209  0.2920  0.1581 -0.4805
  215SOL    HW1 2086   5.489   6.061   8.274  1.4935  0.5157  0.4710
  215SOL    HW2 2087   5.521   6.076   8.127  1.9871 -1.3048  0.3605
  216SOL     OW 2088   2.386   5.922   1.489  0.6829 -0.3168  0.3219
  216SOL    HW1 2089   2.374   5.839   1.534  0.0711 -0.1046  0.5520
  216SOL    HW2 2090   2.317   5.979   1.523  0.6261  0.0536 -0.3846
  217SOL     OW 2091   4.063   6.816   4.580  0.2691 -0.1288 -0.3661
  217SOL    HW1 2092   4.013   6.875   4.524  0.2259 -0.3580 -0.5718
  217SOL    HW2 2093   4.122   6.770   4.521  1.4251  0.8425  0.0030
  218SOL     OW 2094   1.919   5.482   0.091  0.0153 -0.2547 -0.4214
  218SOL    HW1 2095   1.848   5.420   0.102 -2.4256  2.0018 -2.2087
  218SOL    HW2 2096   1.944   5.474  -0.002  1.6994 -0.5457  0.0150
  219SOL     OW 2097   3.433   7.569   4.446  0.2162  0.0466  0.2758
  219SOL    HW1 2098   3.364   7.517   4.403  0.5400  0.5934 -0.9643
  219SOL    HW2 2099   3.495   7.504   4.479 -0.8236 -0.4510  1.3137
  220SOL     OW 2100   1.950   6.229   5.243 -0.3354  0.2308 -0.0827
  220SOL    HW1 2101   1.907   6.195   5.322  0.5433 -0.1201  0.2588
  220SOL    HW2 2102   1.885   6.218   5.174 -1.1083  0.5100  0.5790
  221SOL     OW 2103   6.573   0.971  11.162 -0.0391  0.3207  0.0302
  221SOL    HW1 2104   6.644   0.938  11.108  1.1932  1.6048  0.8090
  221SOL    HW2 2105   6.528   1.034  11.107  1.0119  1.3812  0.3424
  222SOL     OW 2106   5.004   2.793   4.977 -0.3597 -0.4123  0.0563
  222SOL    HW1 2107   4.927   2.823   5.025 -0.2089 -3.3542  2.4860
  222SOL    HW2 2108   4.969   2.746   4.901 -0.6908  2.1467 -1.4782
  223SOL     OW 2109   0.551   1.578   8.353  0.4588  0.3682  0.3654
  223SOL    HW1 2110   0.499   1.606   8.278 -0.3911 -1.8283  0.0575
  223SOL    HW2 2111   0.488   1.569   8.424  0.7309 -0.4084  0.5210
  224SOL     OW 2112   1.239   3.380   0.678  0.4679  0.1682  0.5121
  224SOL    HW1 2113   1.223   3.386   0.773  1.8461 -2.4821  1.0053
  224SOL    HW2 2114   1.288   3.460   0.657 -0.4605  1.1373  1.8738
  225SOL     OW 2115   7.578   5.348   7.853 -0.0536  0.0050  0.2087
  225SOL    HW1 2116   7.569   5.253   7.841 -0.3380 -0.0224  0.6064
  225SOL    HW2 2117   7.542   5.364   7.940 -1.4695  0.6922 -0.4700
  226SOL     OW 2118   3.177   2.572   6.216 -0.7132  0.6168 -0.0506
  226SOL    HW1 2119   3.258   2.620   6.194 -1.3497  2.4017  1.2938
  226SOL    HW2 2120   3.207   2.483   6.234  0.6843  0.7454 -1.4943
  227SOL     OW 2121   7.097   2.212  12.023 -0.2247  0.1792  0.4134
  227SOL    HW1 2122   7.061   2.176  12.104 -0.2909 -0.8695 -0.0605
  227SOL    HW2 2123   7.021   2.227  11.967 -0.0672 -0.6030 -0.0285
  228SOL     OW 2124   6.687   2.839   3.082  0.4035  0.1660 -0.0421
  228SOL    HW1 2125   6.611   2.822   3.026  1.4788 -0.7728 -1.2936
  228SOL    HW2 2126   6.686   2.934   3.095  0.1220  0.4223 -1.7064
  229SOL     OW 2127   3.135   3.988  11.727  0.1931  0.2614 -0.0750
  229SOL    HW1 2128   3.084   4.054  11.681  1.5608  1.4984  0.0802
  229SOL    HW2 2129   3.187   3.946  11.658 -0.1361 -0.1461 -0.0761
  230SOL     OW 2130   7.590   6.451   1.107  0.3606  0.7373  0.0872
  230SOL    HW1 2131   7.531   6.457   1.032  0.8741  3.4294 -0.2082
  230SOL    HW2 2132   7.646   6.376   1.087 -1.1333 -0.1548 -0.9651
  231SOL     OW 2133   6.126   0.545   3.833  0.6045  0.0654 -0.2627
  231SOL    HW1 2134   6.059   0.484   3.804  1.4006 -1.6324  1.2244
  231SOL    HW2 2135   6.209   0.500   3.817  1.3067  1.3310 -0.3628
  232SOL     OW 2136   2.991   0.732   2.923  0.9169 -0.1483 -0.5297
  232SOL    HW1 2137   3.063   0.768   2.975  0.3927 -1.1051  0.8877
  232SOL    HW2 2138   2.915   0.783   2.948  0.0592 -2.3976  1.8616
  233SOL     OW 2139   5.362   4.655   1.825  0.6554 -0.0880 -0.2920
  233SOL    HW1 2140   5.426   4.633   1.757  0.1382 -0.5761 -0.6380
  233SOL    HW2 2141   5.408   4.640   1.907  0.3517 -2.5330 -0.4975
  234SOL     OW 2142   0.380   6.807   1.914 -0.1263 -0.3065 -0.0505
  234SOL    HW1 2143   0.326   6.784   1.990 -0.5671  1.9060  0.3617
  234SOL    HW2 2144   0.405   6.898   1.928  2.2609 -0.6983 -1.1281
  235SOL     OW 2145   2.113   6.159   0.049  0.0308 -0.3450 -0.0626
  235SOL    HW1 2146   2.202   6.158   0.084 -0.2806 -2.1033  0.7989
  235SOL    HW2 2147   2.061   6.202   0.118  0.0840 -0.0489 -0.2074
  236SOL     OW 2148   5.803   5.316   5.060  0.3111 -0.0377 -0.4703
  236SOL    HW1 2149   5.722   5.354   5.095  0.5491  1.2179 -1.2206
  236SOL    HW2 2150   5.864   5.389   5.059  1.3790 -0.9092 -0.1889
  237SOL     OW 2151   5.895   0.872  11.598 -0.4211 -0.0722 -0.4573
  237SOL    HW1 2152   5.946   0.864  11.517 -0.5715  1.5837 -0.7592
  237SOL    HW2 2153   5.893   0.966  11.616  1.7653 -0.5037  2.9022
  238SOL     OW 2154   1.472   3.473   0.373 -0.5784 -0.5346  0.1330
  238SOL    HW1 2155   1.450   3.531   0.446 -0.4556 -0.5158  0.1551
  238SOL    HW2 2156   1.554   3.508   0.338 -1.0705 -0.0314 -0.5479
  239SOL     OW 2157   6.086   2.265   1.445 -0.0227  0.4205  0.0166
  239SOL    HW1 2158   6.114   2.176   1.423 -2.6326 -0.1305 -1.4380
  239SOL    HW2 2159   6.148   2.322   1.399 -0.0279 -0.6766 -1.3978
  240SOL     OW 2160   6.295   0.430   4.383  0.0298  0.4535  0.0376
  240SOL    HW1 2161   6.297   0.435   4.287 -1.0543  0.1600 -0.0230
  240SOL    HW2 2162   6.385   0.443   4.410  0.8318 -1.9486 -1.1447
  241SOL     OW 2163   4.308   0.042  12.026  0.6772 -0.0373 -0.1848
  241SOL    HW1 2164   4.214   0.039  12.007  0.8206  2.4311 -1.6871
  241SOL    HW2 2165   4.325   0.133  12.051  2.9383  0.0415 -1.6720
  242SOL     OW 2166   7.377   4.515   5.327 -0.5478 -0.2457  0.1060
  242SOL    HW1 2167   7.297   4.469   5.353 -0.7547 -0.3342 -0.6879
  242SOL    HW2 2168   7.446   4.469   5.375 -0.9634 -0.1609  0.8106
  243SOL     OW 2169   0.250   7.672   2.352 -0.9006 -0.0931  0.4630
  243SOL    HW1 2170   0.343   7.650   2.351 -0.8018  0.2359  1.2650
  243SOL    HW2 2171   0.206   7.595   2.315 -0.2810 -0.0629 -0.3632
  244SOL     OW 2172   6.270   7.759  10.983 -0.1241  0.1387 -0.3445
  244SOL    HW1 2173   6.273   7.846  10.943 -1.4676  0.3266 -0.1148
  244SOL    HW2 2174   6.349   7.754  11.037  1.0888  0.3600 -2.0314
  245SOL     OW 2175   5.620   7.976   5.829 -0.1445  0.0390  0.0059
  245SOL    HW1 2176   5.597   8.067   5.810  2.0275  0.5586 -0.3421
  245SOL    HW2 2177   5.605   7.968   5.923 -1.1945  0.4617 -0.1014
  246SOL     OW 2178   0.226   1.530  11.575 -0.4657 -0.1656  0.1856
  246SOL    HW1 2179   0.184   1.524  11.489 -0.0998 -1.6341  0.0875
  246SOL    HW2 2180   0.253   1.440  11.595  0.6797  0.3851  1.2175
  247SOL     OW 2181   1.355   2.219   0.986 -0.0412 -0.1145  0.2461
  247SOL    HW1 2182   1.351   2.206   0.891 -1.3960 -1.0943  0.4166
  247SOL    HW2 2183   1.448   2.228   1.005  0.3106 -0.7700 -1.0730
  248SOL     OW 2184   1.428   4.146  11.969 -0.2029 -0.2615 -0.0648
  248SOL    HW1 2185   1.507   4.094  11.986  0.0415 -0.0138 -0.4472
  248SOL    HW2 2186   1.397   4.116  11.884 -0.5586 -0.3999  0.1104
  249SOL     OW 2187   5.432   0.037  12.054  0.5724 -0.2498  0.2313
  249SOL    HW1 2188   5.435  -0.057  12.071  0.0108 -0.0677  1.4005
  249SOL    HW2 2189   5.481   0.076  12.126  3.1561  0.2353 -1.6510
  250SOL     OW 2190   2.749   5.214   0.297  0.4141  0.3513  0.0959
  250SOL    HW1 2191   2.671   5.203   0.352  0.1371 -1.6057 -0.6283
  250SOL    HW2 2192   2.821   5.183   0.352  0.1031 -1.8572 -0.6834
  251SOL     OW 2193   5.698   4.784   3.314  0.0024  0.1178 -0.8587
  251SOL    HW1 2194   5.776   4.730   3.319 -1.0218 -1.5104 -1.4823
  251SOL    HW2 2195   5.690   4.807   3.221 -0.7619 -0.5730 -0.9830
  252SOL     OW 2196   4.071   0.677   9.873 -0.2112  0.8191  0.5483
  252SOL    HW1 2197   4.039   0.602   9.924  0.5217  1.2722  1.7140
  252SOL    HW2 2198   4.046   0.753   9.924  0.2427  1.3088  0.0506
  253SOL     OW 2199   1.650   3.357   6.318  0.2381  0.2239  0.2326
  253SOL    HW1 2200   1.656   3.275   6.368 -0.5503  0.9806  1.6085
  253SOL    HW2 2201   1.734   3.400   6.332  1.2386 -0.9468 -1.6750
  254SOL     OW 2202   7.979   1.406   2.384  0.1447 -0.6404  0.3659
  254SOL    HW1 2203   8.003   1.326   2.336  0.1275 -0.2615 -0.2765
  254SOL    HW2 2204   7.928   1.374   2.459 -0.3968 -1.1959 -0.2254
  255SOL     OW 2205   4.880   0.696   8.147 -0.2676  0.8165 -0.2042
  255SOL    HW1 2206   4.850   0.782   8.175  0.0972  1.4905 -1.8290
  255SOL    HW2 2207   4.805   0.638   8.162 -0.0074  1.0374  2.4032
  256SOL     OW 2208   0.289   0.534   2.421 -0.4010 -0.2474 -0.2812
  256SOL    HW1 2209   0.304   0.625   2.397 -0.9222  0.4213  1.7604
  256SOL    HW2 2210   0.325   0.526   2.509 -0.8549 -1.8756 -0.2056
  257SOL     OW 2211   1.906   4.905   2.780 -0.3999  0.6101  0.1070
  257SOL    HW1 2212   1.894   4.999   2.792 -0.2866  0.4734  1.3646
  257SOL    HW2 2213   2.001   4.894   2.774 -0.4204  0.5904 -0.1974
  258SOL     OW 2214   3.752   7.437   5.860 -0.5604  0.0791  0.2082
  258SOL    HW1 2215   3.771   7.350   5.895 -2.8931 -1.3961 -1.8317
  258SOL    HW2 2216   3.716   7.486   5.935  0.5778 -0.7536  1.3321
  259SOL     OW 2217   2.341   0.219   9.902 -0.7775 -0.2858  0.5399
  259SOL    HW1 2218   2.360   0.201   9.810  1.0647  0.2959  0.7521
  259SOL    HW2 2219   2.273   0.286   9.900  0.3651  0.8904 -0.4537
  260SOL     OW 2220   6.364   1.488   2.341 -0.0590  0.2347  0.6809
  260SOL    HW1 2221   6.367   1.465   2.434 -0.3970 -1.3125  0.3391
  260SOL    HW2 2222   6.337   1.407   2.297 -3.4723  1.7782 -0.4263
  261SOL     OW 2223   5.489   7.150   7.674 -0.0467  0.3657  0.8888
  261SOL    HW1 2224   5.486   7.236   7.631 -0.8691  0.9714  2.1052
  261SOL    HW2 2225   5.405   7.110   7.652 -0.1907  0.4039  1.3555
  262SOL     OW 2226   5.850   5.979  10.302  0.2842 -0.3360 -0.1602
  262SOL    HW1 2227   5.930   6.031  10.294  0.7959 -0.8892  1.0515
  262SOL    HW2 2228   5.802   6.019  10.374  0.3502 -1.1005  0.3234
  263SOL     OW 2229   4.926   6.506   0.211  0.2322 -0.0291  0.3342
  263SOL    HW1 2230   4.949   6.442   0.279 -0.3086 -0.3137  0.2597
  263SOL    HW2 2231   4.984   6.580   0.226  0.3718 -0.2465  0.8744
  264SOL     OW 2232   4.034   7.600   0.219 -0.8241 -0.0871 -0.5827
  264SOL    HW1 2233   4.092   7.532   0.183 -3.0015 -2.1592 -0.4908
  264SOL    HW2 2234   4.091   7.656   0.271  0.9603 -2.7100  0.5084
  265SOL     OW 2235   4.705   1.400   0.797 -0.4127  0.0349  0.6653
  265SOL    HW1 2236   4.755   1.448   0.731  0.7382 -1.4516  0.3953
  265SOL    HW2 2237   4.622   1.447   0.804  0.6964  2.1337  0.5458
  266SOL     OW 2238   3.129   6.469   6.619  0.1188  0.0416  0.0818
  266SOL    HW1 2239   3.156   6.378   6.612  0.1463  0.0885 -0.4742
  266SOL    HW2 2240   3.166   6.499   6.702 -0.6503 -0.7044  0.7173
  267SOL     OW 2241   3.900   6.342   4.247 -0.2290  0.2200 -0.1693
  267SOL    HW1 2242   3.846   6.288   4.305 -0.7095 -0.3169 -1.0975
  267SOL    HW2 2243   3.936   6.409   4.304 -1.0531 -0.0251  0.6694
  268SOL     OW 2244   6.887   5.221   5.922  0.1310 -0.2709 -0.1817
  268SOL    HW1 2245   6.795   5.215   5.949  0.7701 -1.6715  1.9002
  268SOL    HW2 2246   6.932   5.256   5.999  1.4836 -0.4727 -0.8599
  269SOL     OW 2247   7.764   3.785   6.164  0.3040  0.2011  0.0106
  269SOL    HW1 2248   7.808   3.786   6.250  2.0823  1.5703 -0.8363
  269SOL    HW2 2249   7.742   3.694   6.149  2.4254 -0.5002  0.7753
  270SOL     OW 2250   7.399   6.459   0.750  0.3579  0.4780  0.6756
  270SOL    HW1 2251   7.360   6.529   0.802  0.5601 -0.3466  1.9661
  270SOL    HW2 2252   7.424   6.502   0.668 -0.2411  1.7344  1.1192
  271SOL     OW 2253   6.397   4.760   7.765  0.0682 -0.0788 -0.3106
  271SOL    HW1 2254   6.341   4.786   7.692 -0.2169 -0.3968 -0.2076
  271SOL    HW2 2255   6.438   4.679   7.736 -2.0406 -1.6825  0.8486
  272SOL     OW 2256   1.177   5.440   2.310  0.0309  0.1955 -0.0991
  272SOL    HW1 2257   1.239   5.441   2.237 -0.4281  1.8136 -0.5063
  272SOL    HW2 2258   1.118   5.513   2.293 -1.2011 -0.4941  0.9662
  273SOL     OW 2259   7.329   5.152  10.857  0.4476  0.2247  0.3884
  273SOL    HW1 2260   7.385   5.074  10.854  0.4090  0.1771  0.8335
  273SOL    HW2 2261   7.292   5.151  10.945  0.3073  0.6508  0.3351
  274SOL     OW 2262   5.541   6.717   5.269 -0.2860 -0.0624 -0.1262
  274SOL    HW1 2263   5.475   6.786   5.277 -0.2183  0.0777 -0.6755
  274SOL    HW2 2264   5.491   6.637   5.255 -0.5335 -0.7380  3.6222
  275SOL     OW 2265   4.167   2.302   9.342 -0.3114 -0.1304  0.0461
  275SOL    HW1 2266   4.103   2.297   9.414 -0.9561 -2.3523 -0.6061
  275SOL    HW2 2267   4.117   2.339   9.269  0.1656  1.5010  0.5101
  276SOL     OW 2268   1.166   5.603   4.014  0.4709  0.5254 -0.3769
  276SOL    HW1 2269   1.161   5.691   4.051 -1.0890 -0.0780  0.9508
  276SOL    HW2 2270   1.080   5.590   3.973  0.6274 -0.4348 -0.4083
  277SOL     OW 2271   0.180   7.471  11.075  0.2128 -0.1538  0.0352
  277SOL    HW1 2272   0.105   7.429  11.033  0.4353 -0.4187 -0.0989
  277SOL    HW2 2273   0.247   7.475  11.007 -0.4437  2.1802 -0.5446
  278SOL     OW 2274   7.610   6.356   3.822 -0.4641  0.6453  0.3152
  278SOL    HW1 2275   7.672   6.342   3.751 -0.5761 -0.1754  0.3610
  278SOL    HW2 2276   7.659   6.332   3.901 -0.5601  0.8571  0.4379
  279SOL     OW 2277   0.751   3.734   1.121 -0.0851 -0.3303  0.1327
  279SOL    HW1 2278   0.811   3.782   1.179 -0.7910 -1.1792  1.6191
  279SOL    HW2 2279   0.690   3.801   1.090 -0.6717 -0.0922  1.6850
  280SOL     OW 2280   7.505   4.416  11.310 -0.1794 -0.0094  0.1774
  280SOL    HW1 2281   7.592   4.403  11.273 -0.5123 -0.9548 -0.3091
  280SOL    HW2 2282   7.516   4.399  11.404  0.2291  0.2570  0.1792
  281SOL     OW 2283   0.947   4.802   2.854  0.0165 -0.7767 -0.2903
  281SOL    HW1 2284   0.984   4.875   2.904 -0.7292 -0.1795 -0.5833
  281SOL    HW2 2285   0.857   4.795   2.885  0.3682 -2.2705  0.4838
  282SOL     OW 2286   4.793   7.278  10.879  0.0855 -0.2215  0.2786
  282SOL    HW1 2287   4.877   7.249  10.915  0.1522 -0.2233  0.1190
  282SOL    HW2 2288   4.738   7.293  10.957  0.8542  1.7258  0.4858
  283SOL     OW 2289   6.801   3.023   0.481  0.0516  0.2146  0.3026
  283SOL    HW1 2290   6.747   3.102   0.489 -1.9580 -0.7793 -2.3201
  283SOL    HW2 2291   6.808   2.990   0.571 -3.0027  0.8925  0.8964
  284SOL     OW 2292   6.091   6.106   7.689  0.2441 -0.3277 -0.1395
  284SOL    HW1 2293   6.065   6.017   7.666 -0.0088 -0.1685 -0.4723
  284SOL    HW2 2294   6.150   6.132   7.619  1.4228 -0.7289  0.6696
  285SOL     OW 2295   7.103   0.482   8.661  0.1176 -0.4428 -0.3151
  285SOL    HW1 2296   7.035   0.548   8.650  0.0069 -0.5711 -0.4033
  285SOL    HW2 2297   7.182   0.522   8.625  0.1927 -0.1192  0.2049
  286SOL     OW 2298   2.983   2.088   1.198  0.2990  0.3987  0.0353
  286SOL    HW1 2299   2.942   2.055   1.278 -1.1415  0.1541 -0.7680
  286SOL    HW2 2300   3.026   2.012   1.160  0.3183  0.3414  0.1705
  287SOL     OW 2301   2.649   5.494   1.607 -0.1677  0.3256  0.5568
  287SOL    HW1 2302   2.725   5.439   1.587  0.5975  1.7897 -0.7991
  287SOL    HW2 2303   2.584   5.469   1.541 -0.1470  0.4377  0.4946
  288SOL     OW 2304   5.947   5.438   1.160 -0.0848  0.3389  0.1684
  288SOL    HW1 2305   6.022   5.393   1.122  0.7322  0.1105  1.9488
  288SOL    HW2 2306   5.885   5.368   1.181 -0.3938  0.4310 -0.4207
  289SOL     OW 2307   5.540   6.357   2.594 -0.4084 -0.1024  0.0309
  289SOL    HW1 2308   5.627   6.364   2.634 -0.9888  1.6103  1.0630
  289SOL    HW2 2309   5.529   6.263   2.579  0.5822 -0.6493  2.2714
  290SOL     OW 2310   7.200   3.412  10.897 -0.1250  0.4723 -0.0223
  290SOL    HW1 2311   7.199   3.341  10.833 -0.0140 -0.5352  1.0700
  290SOL    HW2 2312   7.213   3.369  10.981  1.4082  1.9066  0.5264
  291SOL     OW 2313   2.268   5.312  11.358 -0.2388 -0.4905  0.5302
  291SOL    HW1 2314   2.344   5.367  11.337  0.1552 -0.1696  2.5828
  291SOL    HW2 2315   2.202   5.337  11.293  0.7113  0.7599 -0.0008
  292SOL     OW 2316   5.800   1.868   7.289  0.1777  0.0566  0.2698
  292SOL    HW1 2317   5.882   1.917   7.284 -0.7316  1.7827  1.1284
  292SOL    HW2 2318   5.754   1.889   7.208  0.6831 -1.1717 -0.3622
  293SOL     OW 2319   3.749   7.508   3.616  0.1247 -0.1915  0.7794
  293SOL    HW1 2320   3.677   7.449   3.593 -0.2137 -0.1536  1.7241
  293SOL    HW2 2321   3.743   7.579   3.552  1.0496 -1.5473 -0.9215
  294SOL     OW 2322   4.151   0.856   4.254  1.0728  0.4956  0.1458
  294SOL    HW1 2323   4.101   0.925   4.211 -0.0489  0.0225  0.6356
  294SOL    HW2 2324   4.228   0.900   4.289 -0.0468  1.6994  1.2134
  295SOL     OW 2325   5.172   1.300   4.138 -0.5244  0.1775 -0.3320
  295SOL    HW1 2326   5.146   1.214   4.105 -1.5313  0.7542 -1.1170
  295SOL    HW2 2327   5.231   1.334   4.070 -0.0275  0.0671  0.0376
  296SOL     OW 2328   6.520   7.480   5.046 -0.3655  0.2013  0.0996
  296SOL    HW1 2329   6.541   7.392   5.076 -0.4408 -0.4222 -1.5414
  296SOL    HW2 2330   6.590   7.501   4.983 -0.8156  0.9583 -0.1620
  297SOL     OW 2331   6.050   5.168   0.799  0.2621 -0.7120  0.2728
  297SOL    HW1 2332   6.099   5.117   0.864 -0.6973 -0.0057  1.5993
  297SOL    HW2 2333   6.071   5.126   0.715  2.2546 -1.0999  0.9052
  298SOL     OW 2334   2.848   3.043   6.187  0.4747 -0.4043 -0.8380
  298SOL    HW1 2335   2.933   3.078   6.211 -0.7353  1.6353  0.8161
  298SOL    HW2 2336   2.803   3.115   6.144 -1.1471 -0.7135  0.2382
  299SOL     OW 2337   4.884   7.407   9.071 -0.0651  0.4163 -0.1514
  299SOL    HW1 2338   4.957   7.373   9.122 -1.0231  0.3492  1.1949
  299SOL    HW2 2339   4.869   7.495   9.106 -1.0759  0.1680  0.0594
  300SOL     OW 2340   7.941   5.872  11.503  0.1586  0.4802  0.3746
  300SOL    HW1 2341   7.856   5.915  11.495 -0.4750 -0.9828 -1.6678
  300SOL    HW2 2342   7.924   5.781  11.477  2.0709 -0.2165  1.3816
  301SOL     OW 2343   2.134   6.751   5.631  0.1046  0.4118 -0.0500
  301SOL    HW1 2344   2.078   6.718   5.702  2.3854  0.7694  2.0454
  301SOL    HW2 2345   2.107   6.843   5.621  0.1767  0.5400  0.8369
  302SOL     OW 2346   5.048   0.716   1.208  0.4107 -0.2665  0.2200
  302SOL    HW1 2347   5.045   0.783   1.140 -0.2801  0.2781  0.7708
  302SOL    HW2 2348   5.140   0.691   1.213  0.7182  0.8026  0.1546
  303SOL     OW 2349   3.566   2.095   6.152 -0.1302  0.4124  0.1698
  303SOL    HW1 2350   3.588   2.003   6.139  0.0112  0.3957  0.5004
  303SOL    HW2 2351   3.647   2.135   6.185 -0.2230  0.6283  0.1423
  304SOL     OW 2352   6.557   5.294   2.212  0.0711 -0.2489  0.0489
  304SOL    HW1 2353   6.571   5.287   2.118 -0.2744  1.0472 -0.1282
  304SOL    HW2 2354   6.462   5.302   2.221  0.0348 -1.1730  0.5796
  305SOL     OW 2355   3.032   3.504   1.276 -0.2435  0.2318  0.3251
  305SOL    HW1 2356   3.022   3.482   1.368 -0.3539  2.2063  0.8398
  305SOL    HW2 2357   3.097   3.442   1.243  1.7486  1.0524  2.3924
  306SOL     OW 2358   2.076   5.336   1.207  0.3288  0.2511 -0.2031
  306SOL    HW1 2359   2.077   5.272   1.135  1.0336  0.7750 -0.6734
  306SOL    HW2 2360   2.028   5.411   1.171 -0.7837 -0.1155  0.4576
  307SOL     OW 2361   7.457   1.252   3.119 -0.2312  0.1441 -0.1431
  307SOL    HW1 2362   7.484   1.301   3.041 -1.0398 -0.3503 -0.7453
  307SOL    HW2 2363   7.533   1.256   3.177 -0.0788  1.6347 -0.4016
  308SOL     OW 2364   1.881   3.481   5.422 -0.1190 -0.5814  0.1617
  308SOL    HW1 2365   1.869   3.574   5.442  2.2921 -0.6656  2.4602
  308SOL    HW2 2366   1.811   3.437   5.470 -1.8105  0.0143 -1.6247
  309SOL     OW 2367   5.153   0.321   5.108  0.2926 -0.2694  0.1479
  309SOL    HW1 2368   5.109   0.369   5.037  0.7963 -1.0394 -0.7018
  309SOL    HW2 2369   5.153   0.382   5.182  2.4173  1.7504 -1.3805
  310SOL     OW 2370   0.947   0.749   2.823  0.1336 -0.2951 -0.1974
  310SOL    HW1 2371   1.020   0.811   2.818  0.2797 -0.4323  0.1727
  310SOL    HW2 2372   0.918   0.754   2.914  1.4354 -2.2249  0.3783
  311SOL     OW 2373   2.945   5.396   4.469  0.0875  0.2581  0.1088
  311SOL    HW1 2374   2.873   5.388   4.531  0.4079 -0.9443  0.3510
  311SOL    HW2 2375   2.913   5.353   4.390 -0.5179  2.2314 -0.7928
  312SOL     OW 2376   0.185   2.601   3.360 -0.1776 -0.1805  0.1703
  312SOL    HW1 2377   0.209   2.571   3.272  0.0779  1.1792 -0.2519
  312SOL    HW2 2378   0.225   2.688   3.367 -0.4157 -0.1588  1.5379
  313SOL     OW 2379   0.356   1.448   2.426  0.2164  0.0802 -0.2078
  313SOL    HW1 2380   0.451   1.433   2.433 -0.0489 -2.1440 -0.5986
  313SOL    HW2 2381   0.331   1.485   2.511  1.4638  1.0059 -0.2159
  314SOL     OW 2382   1.938   6.825   4.773  0.5199  0.5620 -0.5263
  314SOL    HW1 2383   1.847   6.827   4.744  1.1737 -2.2845 -3.3264
  314SOL    HW2 2384   1.981   6.892   4.721  0.3092  0.8941 -0.2796
  315SOL     OW 2385   0.435   7.401   0.587  0.2554 -0.0256 -0.8625
  315SOL    HW1 2386   0.382   7.332   0.627 -0.2924  1.5864  1.4007
  315SOL    HW2 2387   0.522   7.362   0.578  0.2713 -0.6939  1.5154
  316SOL     OW 2388   6.492   5.243  11.420  0.4829 -0.2619 -0.1104
  316SOL    HW1 2389   6.542   5.221  11.499  0.8191 -0.1454 -0.2901
  316SOL    HW2 2390   6.524   5.330  11.396 -0.7186  0.3855  0.5098
  317SOL     OW 2391   0.503   0.821   3.695  0.4164 -0.3903 -0.9768
  317SOL    HW1 2392   0.479   0.744   3.745  3.6187 -1.6619 -1.1654
  317SOL    HW2 2393   0.485   0.798   3.604  2.2561 -1.3832 -1.1316
  318SOL     OW 2394   5.584   4.249   5.637 -0.3417  0.2043  0.4227
  318SOL    HW1 2395   5.524   4.262   5.711 -0.5616 -0.7662  0.4250
  318SOL    HW2 2396   5.671   4.242   5.678 -0.0304  2.6916  0.3411
  319SOL     OW 2397   7.438   1.751   2.255 -0.0448  0.0692  0.8158
  319SOL    HW1 2398   7.486   1.797   2.324  0.1324  0.5075  0.4008
  319SOL    HW2 2399   7.495   1.753   2.179 -1.5710  2.6040 -0.3993
  320SOL     OW 2400   7.321   2.204   6.607  0.8837  0.2291  0.1891
  320SOL    HW1 2401   7.345   2.292   6.637 -0.2436  0.2907  0.9722
  320SOL    HW2 2402   7.307   2.154   6.687  2.5521 -1.0024 -0.2334
  321SOL     OW 2403   1.959   3.270   5.767 -0.2591  0.1978  0.2126
  321SOL    HW1 2404   2.050   3.286   5.741 -1.2558  1.3173 -3.0309
  321SOL    HW2 2405   1.918   3.356   5.762 -1.9820 -0.6396 -0.5056
  322SOL     OW 2406   5.727   1.455   1.523  0.6976 -0.1303  0.4185
  322SOL    HW1 2407   5.800   1.448   1.461  0.8187  0.0114  0.5413
  322SOL    HW2 2408   5.712   1.366   1.553 -1.2639 -0.6953 -1.9390
  323SOL     OW 2409   1.985   7.411   4.862 -0.3335  0.0648  0.5276
  323SOL    HW1 2410   2.006   7.413   4.769 -0.3251 -1.0414  0.5029
  323SOL    HW2 2411   2.043   7.478   4.901  1.0828 -0.8259  0.0249
  324SOL     OW 2412   6.158   0.711   9.585  0.2394  0.4142  0.0457
  324SOL    HW1 2413   6.142   0.752   9.670 -1.6058 -0.8383  0.3497
  324SOL    HW2 2414   6.204   0.629   9.606 -0.0560  0.1900 -0.1704
  325SOL     OW 2415   1.665   0.645   5.914  0.0425  0.1424  0.6993
  325SOL    HW1 2416   1.680   0.556   5.946 -2.6881 -0.6929 -0.0521
  325SOL    HW2 2417   1.679   0.701   5.990  1.2534 -0.9682  1.3277
  326SOL     OW 2418   0.062   1.726   5.859 -0.1848 -0.6144  0.4599
  326SOL    HW1 2419  -0.025   1.762   5.842 -0.1329 -0.4713  0.4975
  326SOL    HW2 2420   0.099   1.709   5.772  0.5376  1.2003  0.3810
  327SOL     OW 2421   6.738   5.432   6.624 -0.5053 -0.0595 -0.4329
  327SOL    HW1 2422   6.688   5.507   6.591  0.6081  0.1538 -1.6884
  327SOL    HW2 2423   6.798   5.470   6.688 -0.2445  0.0616 -0.7468
  328SOL     OW 2424   2.486   5.700  11.423 -0.7230  0.2078 -0.2301
  328SOL    HW1 2425   2.501   5.619  11.472  0.2519 -0.2788 -1.2734
  328SOL    HW2 2426   2.493   5.770  11.488 -3.2829 -0.5878  1.0328
  329SOL     OW 2427   6.880   1.815  12.054  0.3571  0.5882 -0.3800
  329SOL    HW1 2428   6.845   1.833  11.967 -0.7214 -1.3876 -0.4214
  329SOL    HW2 2429   6.922   1.729  12.046 -1.8651 -0.8053  1.5230
  330SOL     OW 2430   2.158   2.125  12.077 -0.2260  0.0076 -0.1102
  330SOL    HW1 2431   2.107   2.187  12.129 -1.8928  0.1969 -1.8611
  330SOL    HW2 2432   2.197   2.178  12.007  2.4018 -0.1494  1.0993
  331SOL     OW 2433   3.668   2.469   4.125 -0.0441 -0.0842  0.0462
  331SOL    HW1 2434   3.669   2.560   4.154  1.1828  0.4964 -1.6016
  331SOL    HW2 2435   3.740   2.428   4.173 -1.1321 -0.4513  1.4284
  332SOL     OW 2436   7.918   0.023   4.395  0.3780 -0.3002  0.0184
  332SOL    HW1 2437   7.975  -0.052   4.411  1.2465  0.3821  0.1975
  332SOL    HW2 2438   7.834  -0.003   4.432  0.4254 -1.5033 -0.6634
  333SOL     OW 2439   2.653   1.794   2.673 -0.1869 -0.1210  0.0414
  333SOL    HW1 2440   2.591   1.823   2.740  0.7965  1.5087  0.3076
  333SOL    HW2 2441   2.712   1.735   2.719  0.3059  0.7600  0.5602
  334SOL     OW 2442   3.841   4.282   7.119  0.6387 -0.3179  0.1833
  334SOL    HW1 2443   3.800   4.360   7.156 -0.4002  0.3000 -2.0634
  334SOL    HW2 2444   3.773   4.243   7.064  1.6614 -1.9106 -0.0389
  335SOL     OW 2445   2.022   0.476   5.051 -0.4737 -0.2962 -0.4028
  335SOL    HW1 2446   1.974   0.494   4.970 -0.4158  1.2963 -0.1021
  335SOL    HW2 2447   2.103   0.435   5.023 -0.1031  0.9657 -1.2219
  336SOL     OW 2448   0.169   1.056   3.044 -0.1115  0.3955 -0.2226
  336SOL    HW1 2449   0.084   1.094   3.065  0.2942 -0.3610  3.3009
  336SOL    HW2 2450   0.149   0.981   2.988 -1.8146  0.0490  0.7852
  337SOL     OW 2451   0.356   4.556   1.974  0.0729 -0.3068 -0.4349
  337SOL    HW1 2452   0.360   4.578   1.881 -2.1350  1.7670 -0.1316
  337SOL    HW2 2453   0.264   4.566   1.997  0.5012 -1.1484  1.9063
  338SOL     OW 2454   1.327   7.856  12.020 -0.1630 -1.1298 -0.8275
  338SOL    HW1 2455   1.296   7.934  12.065 -1.9778 -1.8354 -0.7730
  338SOL    HW2 2456   1.303   7.871  11.928 -1.7731 -2.1793 -0.6062
  339SOL     OW 2457   3.108   5.426   9.392 -0.1173 -0.2090 -0.3708
  339SOL    HW1 2458   3.157   5.453   9.470 -1.3653 -2.9196  1.5171
  339SOL    HW2 2459   3.150   5.345   9.364 -1.1365 -0.5166 -1.0693
  340SOL     OW 2460   6.138   2.557  10.916 -0.0732 -0.1098  0.1844
  340SOL    HW1 2461   6.185   2.476  10.894  0.5834  1.0686 -3.2968
  340SOL    HW2 2462   6.057   2.527  10.956  0.3725 -2.4702 -0.5105
  341SOL     OW 2463   6.356   6.720   3.366  0.2989 -0.3761  0.2227
  341SOL    HW1 2464   6.416   6.650   3.395 -1.8275 -2.0834  0.7370
  341SOL    HW2 2465   6.314   6.685   3.288  0.3072  1.0178 -0.4374
  342SOL     OW 2466   5.239   1.256   6.498 -0.2578  0.0144  0.2993
  342SOL    HW1 2467   5.250   1.321   6.568  1.1832 -0.2097  0.3017
  342SOL    HW2 2468   5.294   1.288   6.426  0.0644 -0.9272  0.1097
  343SOL     OW 2469   3.735   4.522   9.090 -0.0630 -0.1333  0.1342
  343SOL    HW1 2470   3.665   4.474   9.135 -0.2216 -1.3895 -1.3737
  343SOL    HW2 2471   3.693   4.605   9.064 -0.7283 -0.4788  0.0694
  344SOL     OW 2472   4.960   1.410   5.739  0.2015  0.4184  0.4258
  344SOL    HW1 2473   4.968   1.506   5.745  0.7161  0.3622  0.7239
  344SOL    HW2 2474   4.911   1.385   5.817  0.3037  0.4133  0.4883
  345SOL     OW 2475   7.505   7.537   0.490 -0.5919 -0.1816  0.0497
  345SOL    HW1 2476   7.510   7.633   0.493 -0.4943 -0.1957  3.3181
  345SOL    HW2 2477   7.411   7.518   0.499 -0.4108 -0.3372  2.0927
  346SOL     OW 2478   5.247   0.874   5.087  0.2202 -0.0298  0.0102
  346SOL    HW1 2479   5.236   0.952   5.142 -0.6914 -0.8474  1.0462
  346SOL    HW2 2480   5.281   0.807   5.147 -0.8272 -0.9561 -0.3830
  347SOL     OW 2481   3.395   0.180   4.068  0.3131 -0.6791  0.0289
  347SOL    HW1 2482   3.371   0.141   4.152 -0.9593 -0.9515 -0.4348
  347SOL    HW2 2483   3.489   0.197   4.074  0.0669  0.2459  1.8945
  348SOL     OW 2484   2.716   0.749   4.888  0.4175  0.5031  0.6302
  348SOL    HW1 2485   2.691   0.729   4.978 -0.2939  2.2691  0.8736
  348SOL    HW2 2486   2.639   0.725   4.835 -0.2224  1.8824  0.8590
  349SOL     OW 2487   7.567   1.802  11.608  0.0843  0.0680 -0.6618
  349SOL    HW1 2488   7.563   1.896  11.622  0.4249  0.3737 -2.4775
  349SOL    HW2 2489   7.608   1.791  11.522 -0.0260 -1.7329 -0.5328
  350SOL     OW 2490   5.372   2.025   5.654 -0.2038  0.0373  0.5584
  350SOL    HW1 2491   5.308   1.955   5.640 -1.1488  0.9901 -0.0940
  350SOL    HW2 2492   5.326   2.089   5.709  0.8054 -0.0567  1.5274
  351SOL     OW 2493   7.000   3.939  11.776  0.3097 -0.2825  0.3771
  351SOL    HW1 2494   7.038   3.860  11.738  0.6805 -0.0635  0.2751
  351SOL    HW2 2495   6.974   3.992  11.700  0.9671  0.1168  0.4214
  352SOL     OW 2496   5.353   2.112   0.925  0.0774 -0.4367 -0.1760
  352SOL    HW1 2497   5.444   2.124   0.955  0.3958 -1.1636 -0.8166
  352SOL    HW2 2498   5.300   2.145   0.998  0.8459 -0.9752  0.6660
  353SOL     OW 2499   0.383   4.099   9.141  0.5925 -0.5230 -0.3507
  353SOL    HW1 2500   0.291   4.105   9.116  0.4628 -1.5230 -0.1574
  353SOL    HW2 2501   0.381   4.059   9.228  1.2075 -0.3777 -0.2651
  354SOL     OW 2502   4.649   2.298   4.530 -0.2742  0.8802  0.1419
  354SOL    HW1 2503   4.681   2.348   4.455  1.0732  1.1312  0.8383
  354SOL    HW2 2504   4.627   2.212   4.494 -1.6182  1.6092 -0.8796
  355SOL     OW 2505   4.977   2.073   4.385 -0.2360 -0.2042  0.0021
  355SOL    HW1 2506   5.043   2.024   4.335  1.3510  1.5053  0.3162
  355SOL    HW2 2507   4.951   2.145   4.327 -1.3577 -0.4789  0.1424
  356SOL     OW 2508   4.501   5.531  11.825  0.4230  0.1100  0.0734
  356SOL    HW1 2509   4.505   5.540  11.730 -0.8540 -0.3104 -0.0424
  356SOL    HW2 2510   4.422   5.578  11.850 -0.7620 -2.0180  0.5875
  357SOL     OW 2511   1.433   5.725  12.393 -0.0799  0.2661  0.3196
  357SOL    HW1 2512   1.415   5.678  12.474  0.3159  0.6910  0.6588
  357SOL    HW2 2513   1.507   5.679  12.353  0.1822  0.4818  0.5545
  358SOL     OW 2514   7.102   7.348   2.435  0.3018 -0.1269  0.1873
  358SOL    HW1 2515   7.087   7.441   2.423 -0.8623 -0.5036 -1.7630
  358SOL    HW2 2516   7.105   7.313   2.346  1.5923 -1.8411  0.8388
  359SOL     OW 2517   4.731   2.235   7.577  0.5012  0.3679 -0.0153
  359SOL    HW1 2518   4.728   2.250   7.483  1.5377 -0.1190 -0.1395
  359SOL    HW2 2519   4.730   2.323   7.615 -3.1999  0.6091 -0.2829
  360SOL     OW 2520   5.639   4.303  11.863  0.5319  0.2731  0.6212
  360SOL    HW1 2521   5.716   4.318  11.917  0.7335 -1.2663  0.8015
  360SOL    HW2 2522   5.603   4.220  11.894 -0.3013  0.1879 -0.4881
  361SOL     OW 2523   3.880   5.475  10.217  0.5315  0.0090 -0.5565
  361SOL    HW1 2524   3.805   5.463  10.159 -0.1144 -0.6777  0.3944
  361SOL    HW2 2525   3.905   5.387  10.243  0.2660  0.3334  0.8834
  362SOL     OW 2526   0.740   1.521   0.646 -0.2714 -0.5345  0.2178
  362SOL    HW1 2527   0.811   1.579   0.620  0.2996 -1.6009 -0.6840
  362SOL    HW2 2528   0.687   1.512   0.567  1.2729 -3.5350 -0.6283
  363SOL     OW 2529   0.284   5.025   1.036 -0.0553 -0.4147 -0.6615
  363SOL    HW1 2530   0.234   5.013   1.116 -0.3475  1.8087 -0.4484
  363SOL    HW2 2531   0.245   4.963   0.974 -1.0174 -0.8952  0.3814
  364SOL     OW 2532   7.050   3.226  10.219 -0.5443 -0.0014 -0.3800
  364SOL    HW1 2533   6.959   3.211  10.194 -0.3152 -1.9492 -0.2322
  364SOL    HW2 2534   7.067   3.160  10.286  1.9595 -2.1919 -2.8901
  365SOL     OW 2535   7.348   7.267   9.166  0.2958  0.7536 -0.0551
  365SOL    HW1 2536   7.367   7.330   9.097  2.2399 -1.0467 -1.3143
  365SOL    HW2 2537   7.317   7.320   9.240  0.9631  3.0439 -1.3218
  366SOL     OW 2538   1.535   6.930   4.941 -0.2324 -0.8190  0.2675
  366SOL    HW1 2539   1.535   6.837   4.966 -0.8178 -0.3375  2.1368
  366SOL    HW2 2540   1.464   6.969   4.991  0.7461  0.8746  0.3907
  367SOL     OW 2541   3.831   5.742   5.333 -0.0275  0.1988 -0.7050
  367SOL    HW1 2542   3.799   5.780   5.251 -1.4735 -0.1723 -0.3455
  367SOL    HW2 2543   3.819   5.648   5.322 -0.7302  0.1831  0.1281
  368SOL     OW 2544   1.383   0.704   9.830 -0.0982 -0.4025  0.4182
  368SOL    HW1 2545   1.463   0.676   9.876  1.0776  3.2499  0.9265
  368SOL    HW2 2546   1.397   0.676   9.740  2.5677  1.3035  0.1640
  369SOL     OW 2547   4.697   4.715   7.182  0.1187  0.4226 -0.0882
  369SOL    HW1 2548   4.606   4.693   7.198  0.0920 -0.4168 -1.2475
  369SOL    HW2 2549   4.696   4.764   7.100  0.8659 -1.2408 -1.1358
  370SOL     OW 2550   2.893   0.884   6.216  0.4364  0.6884  0.7975
  370SOL    HW1 2551   2.814   0.928   6.249 -1.8026 -1.8013 -0.7875
  370SOL    HW2 2552   2.935   0.849   6.294 -0.8353  0.8915  1.6126
  371SOL     OW 2553   1.729   4.133   8.990  0.0317  0.0212 -0.7958
  371SOL    HW1 2554   1.788   4.098   9.057  1.2943  0.5614 -1.5888
  371SOL    HW2 2555   1.667   4.186   9.039  2.7492  2.9606 -0.1915
  372SOL     OW 2556   6.302   6.497   2.228 -0.7020 -0.0039 -0.2263
  372SOL    HW1 2557   6.366   6.437   2.189 -3.4275 -2.2062 -1.6276
  372SOL    HW2 2558   6.354   6.553   2.285  2.5592 -1.1611 -1.8031
  373SOL     OW 2559   6.367   3.399   8.083 -0.3369 -0.1327 -0.2637
  373SOL    HW1 2560   6.343   3.369   8.171 -2.3823  0.1650 -0.6747
  373SOL    HW2 2561   6.285   3.396   8.034  0.6023  0.5333 -1.9393
  374SOL     OW 2562   4.468   7.391   7.264  0.0417  0.0503  0.5485
  374SOL    HW1 2563   4.460   7.393   7.168 -1.4707 -1.6583  0.5880
  374SOL    HW2 2564   4.562   7.388   7.279  0.2973 -0.6771 -0.9440
  375SOL     OW 2565   2.069   5.715   2.429 -0.1233 -0.3866  0.6679
  375SOL    HW1 2566   2.137   5.775   2.399 -1.6218  1.1782  0.2345
  375SOL    HW2 2567   2.098   5.628   2.400  0.4020  0.5673 -1.8550
  376SOL     OW 2568   7.165   1.388   0.483  0.0406  0.5892  0.7451
  376SOL    HW1 2569   7.146   1.411   0.392  1.3079 -2.2249 -0.3481
  376SOL    HW2 2570   7.203   1.468   0.520 -0.7254  1.8916 -1.1036
  377SOL     OW 2571   3.510   7.865   0.225  0.7345 -0.4857 -0.7050
  377SOL    HW1 2572   3.543   7.954   0.237  0.0057 -0.1672 -1.0034
  377SOL    HW2 2573   3.567   7.826   0.159  1.4669 -0.4679 -0.0945
  378SOL     OW 2574   5.954   6.301   5.246  0.9349  0.1066  0.4316
  378SOL    HW1 2575   6.002   6.318   5.327  2.3424 -0.4706 -0.2400
  378SOL    HW2 2576   5.940   6.206   5.246 -0.3613  0.2809  0.6762
  379SOL     OW 2577   0.552   2.945   1.069 -0.5707 -0.1980  0.1464
  379SOL    HW1 2578   0.500   2.913   0.995 -1.6158  0.5256  0.5447
  379SOL    HW2 2579   0.488   2.979   1.131  0.2899 -0.7353  1.3798
  380SOL     OW 2580   7.749   7.061  10.590  0.8898 -0.0351 -0.6336
  380SOL    HW1 2581   7.832   7.015  10.604  0.5477 -0.7184 -0.8508
  380SOL    HW2 2582   7.774   7.154  10.591  1.6828 -0.2336 -0.8417
  381SOL     OW 2583   6.281   1.604  11.304  0.6228 -0.8034 -0.0949
  381SOL    HW1 2584   6.373   1.587  11.325  0.7928  0.1607 -0.0359
  381SOL    HW2 2585   6.242   1.517  11.297  1.7911 -1.2726 -1.2831
  382SOL     OW 2586   6.944   1.563   6.168 -0.4301 -0.2307 -0.4429
  382SOL    HW1 2587   7.007   1.523   6.107 -0.7563  1.3180 -1.8607
  382SOL    HW2 2588   6.896   1.626   6.115 -0.1880  1.7971  1.5788
  383SOL     OW 2589   1.500   4.651   9.405  0.2554 -0.2272  0.2875
  383SOL    HW1 2590   1.425   4.676   9.459 -1.6363  0.6341 -2.5091
  383SOL    HW2 2591   1.506   4.556   9.416 -0.1608 -0.0948  1.8498
  384SOL     OW 2592   0.098   3.523   5.622 -0.0266 -0.1625  1.2199
  384SOL    HW1 2593   0.029   3.500   5.559  0.6182  0.1923  0.3643
  384SOL    HW2 2594   0.050   3.548   5.702 -0.8121 -2.1332  1.4147
  385SOL     OW 2595   0.048   0.838   9.312 -0.1947 -0.0887  0.1558
  385SOL    HW1 2596   0.065   0.759   9.364 -1.3709  0.4697  1.4691
  385SOL    HW2 2597   0.123   0.845   9.253  0.4650 -1.5769  0.7671
  386SOL     OW 2598   1.439   4.949   2.688  0.0298 -0.8082  0.0720
  386SOL    HW1 2599   1.527   4.914   2.672 -0.6347 -1.4952 -2.6440
  386SOL    HW2 2600   1.452   5.044   2.693  1.0292 -0.9628  0.6284
  387SOL     OW 2601   6.817   3.698   3.328 -0.2798 -0.3518  0.7874
  387SOL    HW1 2602   6.858   3.690   3.414 -0.4138 -1.2031  0.7826
  387SOL    HW2 2603   6.887   3.677   3.266 -0.8691 -2.5748  0.8053
  388SOL     OW 2604   3.063   4.900   5.473 -0.0770  0.4628 -0.4477
  388SOL    HW1 2605   3.132   4.840   5.497 -0.8791  0.4425  2.0369
  388SOL    HW2 2606   3.090   4.984   5.510 -0.2812  1.0092 -1.4971
  389SOL     OW 2607   1.496   5.752  11.328  0.1999 -0.4906  0.1955
  389SOL    HW1 2608   1.498   5.667  11.372 -0.5258 -0.7255 -0.2271
  389SOL    HW2 2609   1.587   5.766  11.301  0.2568 -1.3192 -0.0867
  390SOL     OW 2610   0.543   1.613   0.985 -0.3035 -0.1932 -0.1934
  390SOL    HW1 2611   0.553   1.674   0.912 -0.7135 -0.1782 -0.2362
  390SOL    HW2 2612   0.579   1.530   0.952 -1.5394 -0.5038 -0.8317
  391SOL     OW 2613   3.922   1.880   0.366  0.0317  0.0788  0.1075
  391SOL    HW1 2614   3.945   1.918   0.281 -0.2559  1.1002  0.4723
  391SOL    HW2 2615   3.855   1.815   0.345 -2.6518  2.7191 -0.1762
  392SOL     OW 2616   7.642   0.012  10.313  0.5542  0.3271  0.0212
  392SOL    HW1 2617   7.573   0.015  10.247  0.2971 -1.3013  0.1801
  392SOL    HW2 2618   7.640   0.099  10.353 -0.0549  0.9660 -1.3093
  393SOL     OW 2619   6.518   4.290  11.507 -0.2177 -0.0289  0.1561
  393SOL    HW1 2620   6.508   4.277  11.412 -1.0153  0.3660  0.1704
  393SOL    HW2 2621   6.587   4.229  11.533 -0.5315 -0.7048 -0.5527
  394SOL     OW 2622   2.362   4.867   0.062 -0.1156 -0.3277 -0.1464
  394SOL    HW1 2623   2.336   4.856  -0.030 -0.3287 -2.5409  0.1121
  394SOL    HW2 2624   2.452   4.833   0.066  0.1575  0.4301  0.3379
  395SOL     OW 2625   2.537   5.090  10.938  0.3058 -0.3593  0.1540
  395SOL    HW1 2626   2.582   5.016  10.899  0.3966 -0.3856  0.3093
  395SOL    HW2 2627   2.490   5.054  11.013  0.3414 -0.2616  0.2244
  396SOL     OW 2628   3.893   6.663   6.817 -0.0565 -0.1169 -0.5521
  396SOL    HW1 2629   3.982   6.693   6.796 -0.2263  1.3615  0.6196
  396SOL    HW2 2630   3.876   6.593   6.755  1.2668  0.7507 -1.9650
  397SOL     OW 2631   2.352   0.099   1.264 -0.3535  0.0498 -0.1462
  397SOL    HW1 2632   2.435   0.066   1.229 -0.2035  0.2935 -0.0232
  397SOL    HW2 2633   2.328   0.035   1.332 -0.7817 -0.5687 -0.8602
  398SOL     OW 2634   0.630   3.397   8.762  0.4671  0.4579 -0.2853
  398SOL    HW1 2635   0.635   3.481   8.716  1.4709  0.4923 -0.1362
  398SOL    HW2 2636   0.658   3.332   8.697  3.8976  0.7084  0.7370
  399SOL     OW 2637   6.829   7.590   3.753  0.3992  0.2393 -0.0168
  399SOL    HW1 2638   6.874   7.655   3.806  0.7793  0.1958 -0.2762
  399SOL    HW2 2639   6.843   7.507   3.799 -0.0453  0.3283  0.2889
  400SOL     OW 2640   4.955   3.397   3.493 -0.0503  0.3894 -0.3417
  400SOL    HW1 2641   4.932   3.363   3.406 -0.1822 -0.2709 -0.0566
  400SOL    HW2 2642   5.005   3.476   3.476 -0.3464  0.4364 -1.0184
  401SOL     OW 2643   7.748   0.297   3.389 -0.0114 -0.2459  0.4755
  401SOL    HW1 2644   7.807   0.226   3.365 -0.6642 -0.2516 -1.3173
  401SOL    HW2 2645   7.661   0.264   3.366 -0.5347  0.4261  1.4113
  402SOL     OW 2646   3.537   5.069   7.862  0.4984  0.4704 -0.7432
  402SOL    HW1 2647   3.549   5.162   7.848  1.2751  0.4471 -0.3386
  402SOL    HW2 2648   3.622   5.030   7.840  1.0548  0.1893  1.6258
  403SOL     OW 2649   4.278   0.466  10.799  0.1761 -0.1237  0.4772
  403SOL    HW1 2650   4.265   0.492  10.707 -2.8263 -1.3677  0.4221
  403SOL    HW2 2651   4.322   0.381  10.794  1.0412  0.3274  0.2614
  404SOL     OW 2652   2.544   6.041   8.596  0.7190  0.4560  0.3897
  404SOL    HW1 2653   2.466   6.019   8.647  0.0345  2.0841  0.0929
  404SOL    HW2 2654   2.531   5.995   8.513  0.6021 -0.1457  0.7348
  405SOL     OW 2655   7.912   1.320   3.362  0.0790 -0.4825 -0.5673
  405SOL    HW1 2656   7.979   1.280   3.418 -1.3182  0.9473  2.3880
  405SOL    HW2 2657   7.962   1.372   3.299  1.8039 -0.4924  0.6978
  406SOL     OW 2658   2.079   1.030   3.677  0.0759 -0.2939 -0.1434
  406SOL    HW1 2659   2.107   1.067   3.761 -2.0428  0.4025  0.3029
  406SOL    HW2 2660   2.152   1.050   3.618  1.3819 -0.3378  1.3866
  407SOL     OW 2661   0.073   5.049   3.792 -0.0981  0.7682 -0.4460
  407SOL    HW1 2662   0.029   5.127   3.826  0.5033  0.2284  1.7401
  407SOL    HW2 2663   0.090   5.069   3.700 -1.8661  2.3278 -0.4911
  408SOL     OW 2664   6.103   7.742  10.644 -0.2401 -0.7765 -0.0425
  408SOL    HW1 2665   6.185   7.727  10.690  1.2794 -0.4707 -2.4616
  408SOL    HW2 2666   6.044   7.777  10.710  1.0706 -2.4157  2.1198
  409SOL     OW 2667   0.771   7.540   3.257  0.3946  0.2515 -0.1736
  409SOL    HW1 2668   0.677   7.554   3.248  0.3089  0.5442  1.0762
  409SOL    HW2 2669   0.797   7.591   3.333  1.5852  0.2092 -0.5190
  410SOL     OW 2670   6.435   3.419   1.003  0.0253 -0.1887  0.1077
  410SOL    HW1 2671   6.451   3.497   1.056  0.2486 -0.2409  0.1223
  410SOL    HW2 2672   6.340   3.408   1.003  0.0771 -0.8091  1.4013
  411SOL     OW 2673   7.017   0.632   8.943 -0.7332 -0.2968 -0.6805
  411SOL    HW1 2674   6.966   0.605   8.867  1.6387  0.4882 -2.6616
  411SOL    HW2 2675   7.064   0.711   8.915 -1.2940  1.2321  2.2858
  412SOL     OW 2676   1.815   0.285   1.736 -0.1142  0.1893 -0.4761
  412SOL    HW1 2677   1.751   0.283   1.665  0.2331  1.8248 -0.8710
  412SOL    HW2 2678   1.894   0.244   1.699  0.0495  0.9883 -1.0432
  413SOL     OW 2679   3.208   7.417   4.338  0.5201  0.4184  0.3355
  413SOL    HW1 2680   3.187   7.373   4.256  2.5317 -1.5308  0.7611
  413SOL    HW2 2681   3.125   7.422   4.385 -0.0944 -1.4571 -0.4498
  414SOL     OW 2682   7.010   2.916   2.604 -0.0269  0.2949  0.2100
  414SOL    HW1 2683   7.017   2.940   2.512 -0.1628 -0.4468 -0.0021
  414SOL    HW2 2684   6.983   2.996   2.648 -1.2830  0.3396 -0.5931
  415SOL     OW 2685   2.663   7.095   4.802  0.1657  0.0683  0.9393
  415SOL    HW1 2686   2.610   7.049   4.737 -1.5694  2.2485  0.7040
  415SOL    HW2 2687   2.686   7.177   4.759  0.1736  0.9506  2.5742
  416SOL     OW 2688   5.082   3.508   5.236  0.1880  0.4307  0.1021
  416SOL    HW1 2689   5.151   3.455   5.277 -0.8564 -1.6333 -0.6619
  416SOL    HW2 2690   5.030   3.541   5.310 -0.2814 -1.2707  0.5720
  417SOL     OW 2691   6.789   6.934   7.380  0.3140  0.7116  0.3390
  417SOL    HW1 2692   6.742   6.981   7.448  0.2934 -0.1366  0.9206
  417SOL    HW2 2693   6.857   6.995   7.352  1.1714  0.6172  2.0538
  418SOL     OW 2694   0.587   1.176   6.675 -0.4963 -0.5346 -0.0101
  418SOL    HW1 2695   0.628   1.187   6.761  1.4622  1.4274 -1.1227
  418SOL    HW2 2696   0.507   1.229   6.679 -1.3228 -1.7788  1.0758
  419SOL     OW 2697   1.373   0.390   7.504 -0.2856 -0.7369  0.0273
  419SOL    HW1 2698   1.355   0.347   7.587 -0.4775 -1.3614 -0.3304
  419SOL    HW2 2699   1.299   0.366   7.448  0.0798 -0.7163 -0.4674
  420SOL     OW 2700   5.661   5.229   2.960 -0.3438 -0.5328 -0.2060
  420SOL    HW1 2701   5.631   5.300   3.016 -0.3271 -0.5307 -0.1999
  420SOL    HW2 2702   5.651   5.150   3.014  0.8218 -0.3897  0.2245
  421SOL     OW 2703   1.006   7.062   2.666 -0.1386  0.3998 -0.0229
  421SOL    HW1 2704   0.997   7.147   2.710  1.5733  1.3627 -1.3710
  421SOL    HW2 2705   0.917   7.027   2.663 -1.0912  2.6460 -0.3476
  422SOL     OW 2706   0.467   2.811   7.554 -0.3318 -0.3655  0.2039
  422SOL    HW1 2707   0.517   2.884   7.591  0.3375 -0.4958 -0.4377
  422SOL    HW2 2708   0.529   2.764   7.499 -1.4999  0.3894 -1.8959
  423SOL     OW 2709   0.959   7.861   2.408  0.4166  0.3405 -0.2982
  423SOL    HW1 2710   0.987   7.837   2.497 -0.1846  0.2184 -0.1308
  423SOL    HW2 2711   0.942   7.777   2.365  0.1108  0.4090 -0.3197
  424SOL     OW 2712   5.689   2.746   5.840  0.1337  0.5716 -0.3886
  424SOL    HW1 2713   5.683   2.753   5.745 -0.7965 -2.1613 -0.6204
  424SOL    HW2 2714   5.607   2.783   5.872 -0.4574 -0.3116 -0.8287
  425SOL     OW 2715   2.908   1.609   0.935  0.2065 -0.1034 -0.1350
  425SOL    HW1 2716   2.901   1.519   0.966  0.0587 -0.1437 -0.2824
  425SOL    HW2 2717   3.000   1.620   0.913  0.4553  0.1433  0.9688
  426SOL     OW 2718   5.183   6.551   0.694  0.2694 -0.9361  0.4882
  426SOL    HW1 2719   5.265   6.513   0.664 -0.8183 -1.8157 -1.6067
  426SOL    HW2 2720   5.165   6.509   0.777  1.2493 -1.7603  0.2974
  427SOL     OW 2721   6.039   4.796   6.142 -0.0045  0.5321 -0.4045
  427SOL    HW1 2722   6.070   4.884   6.118  0.5758  0.0146 -1.6840
  427SOL    HW2 2723   5.944   4.802   6.136  0.0738  0.6983 -2.0524
  428SOL     OW 2724   7.069   3.801   7.462  0.5486 -0.0359 -0.2580
  428SOL    HW1 2725   6.993   3.854   7.487  1.0465  1.0662 -0.9826
  428SOL    HW2 2726   7.069   3.801   7.367  0.7122 -1.1471 -0.2710
  429SOL     OW 2727   4.805   2.927   8.721 -0.4885  0.2410  0.6741
  429SOL    HW1 2728   4.745   3.001   8.727  0.6366  1.6925 -3.0431
  429SOL    HW2 2729   4.891   2.966   8.711  0.2169 -1.5333 -0.8607
  430SOL     OW 2730   5.891   0.100   3.668  0.7276  0.6493  0.4221
  430SOL    HW1 2731   5.862   0.080   3.757  2.3036  2.5158  1.4203
  430SOL    HW2 2732   5.965   0.041   3.653  0.4809  0.3570  0.3319
  431SOL     OW 2733   1.446   7.377   0.446 -0.2442  0.2892  0.7415
  431SOL    HW1 2734   1.398   7.339   0.520 -0.6572 -1.0636 -0.1899
  431SOL    HW2 2735   1.462   7.303   0.387  1.3612  1.0576  0.1458
  432SOL     OW 2736   6.327   0.206   6.476 -0.6055  0.0708 -0.0606
  432SOL    HW1 2737   6.421   0.223   6.480 -0.6657  0.8821 -1.4262
  432SOL    HW2 2738   6.320   0.114   6.452 -0.0941  0.4992 -2.0188
  433SOL     OW 2739   1.616   3.407   5.470  0.1746  0.3183 -0.6971
  433SOL    HW1 2740   1.626   3.426   5.377 -1.9478  0.8970 -0.8489
  433SOL    HW2 2741   1.641   3.315   5.478  1.1901  0.4819 -1.6632
  434SOL     OW 2742   5.227   4.964   2.446 -0.2339 -0.2135 -0.4416
  434SOL    HW1 2743   5.228   4.972   2.351  0.6720 -2.2499 -0.6574
  434SOL    HW2 2744   5.230   5.055   2.478 -1.3867  0.5328 -2.3159
  435SOL     OW 2745   6.393   4.328   5.197 -0.5401 -0.3116  0.4364
  435SOL    HW1 2746   6.404   4.245   5.243 -0.3745  0.5035  1.9176
  435SOL    HW2 2747   6.478   4.371   5.203 -0.7257  0.1310  0.0141
  436SOL     OW 2748   7.638   3.053   2.178  0.0633 -0.3454  0.3421
  436SOL    HW1 2749   7.641   3.107   2.257  1.6188 -0.5337  0.4362
  436SOL    HW2 2750   7.631   3.117   2.107 -2.2057 -0.1953  0.6016
  437SOL     OW 2751   7.035   2.209   3.815 -0.3442 -0.3594  0.2709
  437SOL    HW1 2752   7.027   2.232   3.722 -1.1656 -2.8743 -0.3601
  437SOL    HW2 2753   7.098   2.272   3.850  2.7303 -1.3894 -2.8133
  438SOL     OW 2754   1.561   0.503  12.205  0.2945 -0.2403 -0.0823
  438SOL    HW1 2755   1.499   0.435  12.233 -1.7115  2.1172  1.6558
  438SOL    HW2 2756   1.512   0.585  12.212  2.9055  1.5446 -1.0450
  439SOL     OW 2757   5.598   7.357   0.789 -0.0314  0.3828  0.3464
  439SOL    HW1 2758   5.529   7.316   0.842  0.0556  0.8920  0.8618
  439SOL    HW2 2759   5.666   7.290   0.783 -0.2630  0.1347  0.4421
  440SOL     OW 2760   6.318   4.518   7.385 -0.7494  0.0272 -0.3920
  440SOL    HW1 2761   6.295   4.479   7.300  0.4751 -0.6826 -0.4124
  440SOL    HW2 2762   6.331   4.443   7.443 -1.2409  0.4999  0.3465
  441SOL     OW 2763   0.084   6.305  11.063 -0.7719 -0.0465 -0.0501
  441SOL    HW1 2764   0.063   6.234  11.002 -1.1736  0.1630 -0.1589
  441SOL    HW2 2765   0.020   6.297  11.133 -0.2456 -0.3494  0.4060
  442SOL     OW 2766   7.394   3.915   6.371 -0.3521  0.4249 -0.2333
  442SOL    HW1 2767   7.306   3.936   6.341 -0.1800  2.6126  0.5847
  442SOL    HW2 2768   7.407   3.970   6.448  0.9608 -1.4649  0.9751
  443SOL     OW 2769   3.246   4.460   3.055  0.8261 -0.0511  0.1461
  443SOL    HW1 2770   3.245   4.499   3.142  0.2117 -2.1509  1.1481
  443SOL    HW2 2771   3.336   4.430   3.042  0.5495 -1.1901  0.7754
  444SOL     OW 2772   7.577   1.863   2.486 -0.0605  0.0676 -0.2257
  444SOL    HW1 2773   7.494   1.903   2.509 -0.4931 -0.6467 -0.4870
  444SOL    HW2 2774   7.602   1.812   2.563 -0.2366 -0.3035 -0.4120
  445SOL     OW 2775   1.760   4.399   8.642  0.3003 -0.0962 -0.0874
  445SOL    HW1 2776   1.697   4.417   8.712  0.3123  1.6159 -0.4766
  445SOL    HW2 2777   1.842   4.379   8.689  0.0753  0.0774  0.3863
  446SOL     OW 2778   7.593   1.818   8.987 -1.1250  0.4417  0.4283
  446SOL    HW1 2779   7.637   1.808   8.903  0.6558  2.4401  1.0275
  446SOL    HW2 2780   7.584   1.729   9.020 -0.3949 -0.2606 -1.1544
  447SOL     OW 2781   5.298   1.421   0.413  0.8382  0.2072  0.0771
  447SOL    HW1 2782   5.249   1.449   0.336  1.2223  2.9134  0.7269
  447SOL    HW2 2783   5.389   1.436   0.390  1.0563 -0.3715  0.5404
  448SOL     OW 2784   2.814   4.937   9.942 -0.3478  0.2569 -0.0651
  448SOL    HW1 2785   2.874   4.968  10.010 -1.7315  1.3883  0.7058
  448SOL    HW2 2786   2.861   4.867   9.898  1.1140  0.4017  1.1934
  449SOL     OW 2787   4.463   6.395   4.027 -0.3237  0.1825  0.2333
  449SOL    HW1 2788   4.524   6.337   4.074  0.0251 -0.0207 -0.4596
  449SOL    HW2 2789   4.376   6.363   4.052 -0.2197  1.3540  2.3679
  450SOL     OW 2790   4.959   5.997   5.864 -0.3354 -0.0623  0.3401
  450SOL    HW1 2791   4.948   5.980   5.771  1.0093 -0.2032  0.1931
  450SOL    HW2 2792   5.045   5.963   5.886 -0.4195  0.4036  1.5358
  451SOL     OW 2793   6.268   0.665   5.149 -0.4930  0.1961  0.2249
  451SOL    HW1 2794   6.188   0.681   5.199 -0.4569  0.7636  0.1154
  451SOL    HW2 2795   6.330   0.629   5.213 -0.9064 -0.4684  0.2565
  452SOL     OW 2796   1.704   6.561   0.515  0.6753 -0.2332  0.0895
  452SOL    HW1 2797   1.747   6.533   0.596 -0.1119 -1.6466  0.0449
  452SOL    HW2 2798   1.775   6.598   0.463  0.8254  3.2149  2.3833
  453SOL     OW 2799   1.053   2.179   3.239  0.4059 -0.1068  0.2761
  453SOL    HW1 2800   1.098   2.162   3.156 -0.4779 -0.8404 -0.0604
  453SOL    HW2 2801   0.960   2.175   3.218  0.1603  0.7635  1.0974
  454SOL     OW 2802   6.214   0.418   5.929 -0.9049 -0.5719 -0.1850
  454SOL    HW1 2803   6.176   0.473   5.861  0.2984 -0.3082 -0.6835
  454SOL    HW2 2804   6.140   0.375   5.971 -1.7422  0.1330 -0.9194
  455SOL     OW 2805   1.687   7.597   8.063  0.2176 -0.3765 -0.5095
  455SOL    HW1 2806   1.750   7.530   8.035  1.2560  0.5385 -0.4597
  455SOL    HW2 2807   1.701   7.669   8.001 -0.9883 -0.2545 -0.6561
  456SOL     OW 2808   2.064   5.693   5.446 -0.2284  0.0451 -0.1883
  456SOL    HW1 2809   1.989   5.659   5.396 -0.4456  0.9981 -0.5276
  456SOL    HW2 2810   2.042   5.673   5.537 -1.0724  0.6275 -0.2544
  457SOL     OW 2811   5.504   4.892   4.053 -0.4797 -0.6581  0.2528
  457SOL    HW1 2812   5.533   4.888   3.962 -0.3461 -0.7597  0.2992
  457SOL    HW2 2813   5.580   4.862   4.104 -0.2409  0.2574  0.4603
  458SOL     OW 2814   0.803   7.666   0.504  0.5541 -0.6430  0.2682
  458SOL    HW1 2815   0.788   7.696   0.593  1.0436 -1.4482  0.6359
  458SOL    HW2 2816   0.766   7.735   0.448 -0.8379 -0.6860  1.0927
  459SOL     OW 2817   5.770   4.744   7.343  0.5318 -0.1304  0.2832
  459SOL    HW1 2818   5.830   4.720   7.414  1.2055  0.2026 -0.1618
  459SOL    HW2 2819   5.701   4.679   7.347  0.1383  0.3326  1.7457
  460SOL     OW 2820   6.190   2.936  10.696 -0.3060 -0.8859  0.2923
  460SOL    HW1 2821   6.186   2.848  10.658 -1.4610 -0.2521 -1.1329
  460SOL    HW2 2822   6.231   2.990  10.629  0.9927 -0.4203  1.4098
  461SOL     OW 2823   2.490   4.046   2.948 -0.2372 -0.2717 -0.1146
  461SOL    HW1 2824   2.463   4.127   2.905 -2.6524 -1.5556 -1.2191
  461SOL    HW2 2825   2.556   4.009   2.889 -0.6028 -0.0616 -0.6663
  462SOL     OW 2826   2.016   1.753   4.509  0.0496 -0.2047 -0.3058
  462SOL    HW1 2827   2.011   1.659   4.494 -0.0145 -0.2142 -0.2259
  462SOL    HW2 2828   2.109   1.773   4.511  0.0586 -0.1103 -1.3003
  463SOL     OW 2829   4.651   5.036  10.454 -0.3475  0.6761 -0.3048
  463SOL    HW1 2830   4.663   4.973  10.382 -0.6944  1.1629 -0.7901
  463SOL    HW2 2831   4.563   5.018  10.486  0.3498 -0.5677  1.0077
  464SOL     OW 2832   5.029   1.792   1.004  0.1489  0.1881 -0.2049
  464SOL    HW1 2833   5.016   1.865   0.944  1.5711 -0.8305 -1.8245
  464SOL    HW2 2834   4.968   1.725   0.974  0.3747 -0.0754 -0.0845
  465SOL     OW 2835   3.720   5.374   6.881  0.5313 -0.0001 -0.2440
  465SOL    HW1 2836   3.629   5.345   6.877  0.4837  0.1937 -0.5541
  465SOL    HW2 2837   3.767   5.298   6.917  0.3987 -0.4684 -1.0251
  466SOL     OW 2838   1.643   1.154   6.214 -0.2047  0.7212  0.1572
  466SOL    HW1 2839   1.684   1.205   6.285 -1.4080 -0.1009  1.4785
  466SOL    HW2 2840   1.717   1.124   6.162  0.8270  0.2762  1.7987
  467SOL     OW 2841   1.110   5.797   7.856 -0.1412 -0.4215  0.5326
  467SOL    HW1 2842   1.204   5.792   7.876  0.0067  0.2162  0.0627
  467SOL    HW2 2843   1.095   5.890   7.838 -0.9742 -0.4424  1.0816
  468SOL     OW 2844   3.126   4.576  11.586  0.0749  0.3477  0.1990
  468SOL    HW1 2845   3.213   4.603  11.616  0.6682 -0.4512 -0.7559
  468SOL    HW2 2846   3.065   4.624  11.643  1.1379 -0.5121  2.1430
  469SOL     OW 2847   1.333   5.728   4.320  0.1119  0.1216 -0.0862
  469SOL    HW1 2848   1.400   5.666   4.293 -1.9372 -2.4957  0.4281
  469SOL    HW2 2849   1.291   5.755   4.238  1.5930  1.6396 -0.3915
  470SOL     OW 2850   4.707   6.008   9.331  0.0414 -0.1089 -0.4654
  470SOL    HW1 2851   4.637   6.060   9.371 -0.8253 -0.9482 -0.8660
  470SOL    HW2 2852   4.767   6.073   9.295 -0.8580  0.6237 -0.6718
  471SOL     OW 2853   6.711   2.415   1.627 -0.2658 -0.6020 -0.3292
  471SOL    HW1 2854   6.698   2.350   1.557 -3.0199  1.1685 -1.6489
  471SOL    HW2 2855   6.675   2.373   1.705 -0.6871 -1.1894 -0.8267
  472SOL     OW 2856   1.047   7.977   1.123  0.1959  0.4848 -0.7828
  472SOL    HW1 2857   1.076   8.066   1.103 -1.2399  1.0993 -0.2668
  472SOL    HW2 2858   1.013   7.944   1.040 -1.1783  1.2008 -0.5268
  473SOL     OW 2859   4.594   1.507   3.223 -0.4119 -0.1398 -0.8938
  473SOL    HW1 2860   4.522   1.492   3.285 -1.2607 -0.8103 -1.9978
  473SOL    HW2 2861   4.574   1.593   3.184  0.4814  0.5861  0.2155
  474SOL     OW 2862   5.653   6.418   4.340 -0.4954 -0.1266 -0.0243
  474SOL    HW1 2863   5.648   6.345   4.278  0.6112  0.7997 -1.2648
  474SOL    HW2 2864   5.744   6.417   4.369 -0.8921 -0.2571  1.2738
  475SOL     OW 2865   1.858   1.497   9.430 -0.3404 -0.4932  0.2435
  475SOL    HW1 2866   1.869   1.455   9.345 -0.1284  0.3778 -0.1678
  475SOL    HW2 2867   1.784   1.556   9.418 -0.9085 -1.0396  0.9386
  476SOL     OW 2868   4.393   5.925   4.019  0.2655 -0.0621  0.2916
  476SOL    HW1 2869   4.469   5.872   3.992  0.9023  0.6670  0.6029
  476SOL    HW2 2870   4.404   5.935   4.114  0.7328  1.4774  0.1006
  477SOL     OW 2871   7.572   5.323  10.803  0.4384  0.5578  0.1181
  477SOL    HW1 2872   7.601   5.246  10.754 -0.9086  0.7038 -1.0029
  477SOL    HW2 2873   7.491   5.295  10.846  0.6267  0.9844  0.7693
  478SOL     OW 2874   5.746   4.806   5.219 -0.1937 -0.0294  0.2277
  478SOL    HW1 2875   5.697   4.888   5.226  0.0964  0.1226  0.5531
  478SOL    HW2 2876   5.834   4.828   5.251  0.9290  0.3861 -2.8313
  479SOL     OW 2877   6.677   7.492   8.139  0.9800  0.1211 -0.5496
  479SOL    HW1 2878   6.629   7.470   8.059  1.6188 -0.5114 -0.7689
  479SOL    HW2 2879   6.757   7.440   8.134  0.1519 -1.5330  1.4515
  480SOL     OW 2880   4.258   4.551   2.957 -0.1017 -0.2537  0.1001
  480SOL    HW1 2881   4.271   4.479   3.018 -0.3063  1.0353  1.7443
  480SOL    HW2 2882   4.164   4.552   2.941 -0.2150  0.1137  0.7263
  481SOL     OW 2883   4.133   5.596   2.548  0.1552 -0.3527  0.1970
  481SOL    HW1 2884   4.156   5.572   2.638  2.8893  0.1514 -0.2614
  481SOL    HW2 2885   4.073   5.528   2.519  0.2674 -1.2594  1.9691
  482SOL     OW 2886   5.363   1.020   0.691  0.8846 -0.5817  0.6715
  482SOL    HW1 2887   5.448   1.064   0.691  1.0098 -0.8131  1.1065
  482SOL    HW2 2888   5.329   1.033   0.603  0.9465  0.3206  0.7736
  483SOL     OW 2889   2.804   2.211  11.542 -0.8200 -0.0222  0.0198
  483SOL    HW1 2890   2.830   2.297  11.574 -2.2986  0.7672 -0.7943
  483SOL    HW2 2891   2.846   2.149  11.601 -1.3191  1.3126  1.8562
  484SOL     OW 2892   6.749   1.050   0.271  0.5056 -0.6134 -0.5433
  484SOL    HW1 2893   6.721   1.020   0.357  1.9041 -2.7745 -0.7563
  484SOL    HW2 2894   6.673   1.097   0.236 -0.8951 -1.6508  0.9545
  485SOL     OW 2895   0.699   4.513   2.656 -0.2101 -0.1930  0.0819
  485SOL    HW1 2896   0.694   4.509   2.752 -2.8418 -0.0632  0.0128
  485SOL    HW2 2897   0.696   4.606   2.635  2.5897 -0.0624 -0.1420
  486SOL     OW 2898   6.906   2.385   9.079 -0.2966  0.0088 -0.0412
  486SOL    HW1 2899   6.891   2.458   9.140 -1.0484 -0.5980  0.5287
  486SOL    HW2 2900   6.821   2.341   9.073 -0.1684 -0.1010 -1.3433
  487SOL     OW 2901   4.653   7.468   3.992 -0.3611  0.1045  0.1778
  487SOL    HW1 2902   4.689   7.418   4.065  0.2311  0.7355  0.3293
  487SOL    HW2 2903   4.620   7.549   4.032 -0.2458  0.3517 -0.2220
  488SOL     OW 2904   4.712   3.000   2.312 -0.0145  0.0787 -0.0883
  488SOL    HW1 2905   4.700   3.086   2.272 -0.3454  1.4299  2.6258
  488SOL    HW2 2906   4.696   3.016   2.406  0.6799 -2.7991  0.5984
  489SOL     OW 2907   2.093   1.729   3.136 -0.2892  0.3414 -0.4422
  489SOL    HW1 2908   2.007   1.721   3.176 -1.0251  0.7200 -1.8856
  489SOL    HW2 2909   2.129   1.640   3.136 -0.7870  0.1383 -0.0792
  490SOL     OW 2910   2.520   2.910   7.764  0.5252 -0.5764 -0.0918
  490SOL    HW1 2911   2.473   2.942   7.841  0.5814  1.0692 -0.7051
  490SOL    HW2 2912   2.456   2.911   7.693  1.1234  0.4550 -0.6426
  491SOL     OW 2913   5.005   0.973   7.523  0.0927 -0.6625  0.0028
  491SOL    HW1 2914   4.935   1.027   7.486  0.0305 -0.6553  0.1318
  491SOL    HW2 2915   5.071   0.969   7.453  0.2688 -0.1072  0.1313
  492SOL     OW 2916   6.059   5.168  11.554 -0.1783 -0.4370  0.6407
  492SOL    HW1 2917   6.053   5.092  11.612 -0.3881 -0.4768  0.5663
  492SOL    HW2 2918   5.969   5.197  11.543 -0.2844 -1.2017 -0.6806
  493SOL     OW 2919   0.645   1.252  11.336 -0.0699  0.2617  0.1089
  493SOL    HW1 2920   0.598   1.332  11.310 -0.3260 -0.2083 -0.9121
  493SOL    HW2 2921   0.737   1.277  11.331 -0.1689  0.8050  0.8463
  494SOL     OW 2922   2.790   4.450   0.834 -0.3589 -0.1735  0.0598
  494SOL    HW1 2923   2.719   4.413   0.783 -0.7599  0.8207 -0.1230
  494SOL    HW2 2924   2.814   4.530   0.788  1.1554 -0.6854 -0.1052
  495SOL     OW 2925   3.684   5.959   4.456  0.1368  0.0619 -0.2671
  495SOL    HW1 2926   3.588   5.960   4.459  0.1444 -0.4346  1.1610
  495SOL    HW2 2927   3.705   5.910   4.376 -0.7902  0.5334 -0.8117
  496SOL     OW 2928   3.145   0.795   9.662  0.1410 -0.0339 -0.0444
  496SOL    HW1 2929   3.169   0.885   9.640  0.9909 -0.5482 -1.3049
  496SOL    HW2 2930   3.174   0.784   9.753 -0.3140  1.0608  0.2550
  497SOL     OW 2931   7.963   7.160   1.380 -0.0542 -0.1165 -0.1528
  497SOL    HW1 2932   8.020   7.129   1.310  0.6030 -0.3044  0.4589
  497SOL    HW2 2933   8.017   7.220   1.431  0.2927 -1.8348  1.6305
  498SOL     OW 2934   6.765   4.214   3.983  0.2296  0.6755  0.1814
  498SOL    HW1 2935   6.851   4.172   3.976 -0.3629 -0.4438 -0.9065
  498SOL    HW2 2936   6.757   4.266   3.903 -0.4067  0.1498 -0.1074
  499SOL     OW 2937   1.482   6.524   5.781  0.3512 -0.7646  0.0938
  499SOL    HW1 2938   1.453   6.486   5.864  0.0731 -0.5769  0.0853
  499SOL    HW2 2939   1.468   6.618   5.792  2.1034 -0.5247  0.5458
  500SOL     OW 2940   3.585   0.316   1.749 -0.5373 -0.1136  0.2821
  500SOL    HW1 2941   3.636   0.351   1.822 -0.5451 -0.9773  0.7203
  500SOL    HW2 2942   3.642   0.248   1.711 -0.3720  0.5919 -0.7687
  501SOL     OW 2943   7.688   4.226   9.655  0.4057 -0.8855  0.5569
  501SOL    HW1 2944   7.663   4.137   9.680  0.3058 -2.0926 -3.1566
  501SOL    HW2 2945   7.606   4.269   9.632  0.5441 -0.1053  1.4559
  502SOL     OW 2946   4.823   3.513   0.573 -0.4478  0.2150  0.0000
  502SOL    HW1 2947   4.844   3.435   0.625  1.0348 -0.3527 -1.3845
  502SOL    HW2 2948   4.753   3.485   0.515 -1.0633  0.4226  0.6202
  503SOL     OW 2949   3.135   6.062   1.191  0.3938  0.0878 -0.0374
  503SOL    HW1 2950   3.133   6.157   1.198 -2.2830  0.0894  0.3944
  503SOL    HW2 2951   3.126   6.044   1.098 -0.7018  0.2957  0.0166
  504SOL     OW 2952   7.436   1.011   3.285  0.1307 -0.5821  0.0617
  504SOL    HW1 2953   7.420   1.097   3.247  2.2947 -0.1386 -0.0037
  504SOL    HW2 2954   7.395   1.013   3.371 -2.4949 -0.6328 -1.0969
  505SOL     OW 2955   3.043   7.341   9.637 -0.1565  0.6122  0.3971
  505SOL    HW1 2956   3.101   7.385   9.575 -0.1007  0.1448  0.1107
  505SOL    HW2 2957   2.957   7.345   9.595 -0.2229  0.7873  0.5494
  506SOL     OW 2958   4.808   7.076   5.813  0.4960  0.4951 -0.2358
  506SOL    HW1 2959   4.721   7.064   5.852  0.4838 -1.2775 -0.7238
  506SOL    HW2 2960   4.865   7.092   5.888 -0.3621  2.6524  0.0229
  507SOL     OW 2961   3.079   0.290   2.839 -0.6266 -0.7510  0.1326
  507SOL    HW1 2962   2.986   0.296   2.864 -0.9811 -0.7928 -1.0725
  507SOL    HW2 2963   3.086   0.206   2.795  0.2479 -1.2358  1.1669
  508SOL     OW 2964   5.620   7.612   9.170  0.0900  0.3612  0.0186
  508SOL    HW1 2965   5.677   7.628   9.095 -0.7889 -1.2322 -1.0365
  508SOL    HW2 2966   5.540   7.577   9.133  0.1380 -1.7903  1.7554
  509SOL     OW 2967   7.317   0.075   4.849  0.3004 -0.2673 -0.2707
  509SOL    HW1 2968   7.321   0.150   4.908 -1.7367 -0.4581  0.2168
  509SOL    HW2 2969   7.301   0.113   4.763  0.2860 -0.0881 -0.1899
  510SOL     OW 2970   5.483   7.847   6.365  0.3582 -0.7620 -0.4849
  510SOL    HW1 2971   5.416   7.788   6.400 -0.3309  0.3645  0.1325
  510SOL    HW2 2972   5.452   7.935   6.385  0.1414 -0.0194 -3.5555
  511SOL     OW 2973   1.434   5.770   4.036  0.4374  0.6902 -0.4972
  511SOL    HW1 2974   1.431   5.865   4.027 -0.0547  0.6451 -0.8822
  511SOL    HW2 2975   1.390   5.737   3.958 -1.1498  0.2000  0.5538
  512SOL     OW 2976   0.753   4.138   1.440 -0.2909 -0.1284 -0.0928
  512SOL    HW1 2977   0.827   4.197   1.433  1.0239 -1.2031  2.9122
  512SOL    HW2 2978   0.759   4.103   1.529 -2.1030 -3.3109 -1.0770
  513SOL     OW 2979   2.397   3.659   8.366  0.3479 -0.0569  0.1968
  513SOL    HW1 2980   2.326   3.598   8.351  0.2995 -0.1642  0.8548
  513SOL    HW2 2981   2.378   3.733   8.309 -0.5722  0.1461  0.7598
  514SOL     OW 2982   6.690   4.713   4.186  0.4087 -0.1833  0.0023
  514SOL    HW1 2983   6.688   4.664   4.269  0.9076  0.2167  0.2606
  514SOL    HW2 2984   6.726   4.798   4.210 -3.5508  1.6734  0.2691
  515SOL     OW 2985   2.721   3.623   1.798 -0.0658  0.1846 -0.0051
  515SOL    HW1 2986   2.744   3.602   1.888  2.7116  1.6405 -0.2576
  515SOL    HW2 2987   2.639   3.671   1.805  0.6717  1.2928  1.9344
  516SOL     OW 2988   1.495   6.386   5.550 -0.2192 -0.0468 -0.5540
  516SOL    HW1 2989   1.533   6.443   5.483 -0.8255  1.3983  0.2671
  516SOL    HW2 2990   1.478   6.445   5.624 -0.9183 -1.3046  0.3264
  517SOL     OW 2991   2.615   3.493   4.745  0.2527 -0.0536  0.0265
  517SOL    HW1 2992   2.584   3.581   4.767 -1.5910 -0.6512 -0.0353
  517SOL    HW2 2993   2.688   3.508   4.685 -0.8527  1.4373 -1.0222
  518SOL     OW 2994   5.842   1.492   2.474  0.2875  0.1684  0.0112
  518SOL    HW1 2995   5.857   1.528   2.561  1.0459 -0.1040 -0.0002
  518SOL    HW2 2996   5.928   1.494   2.432 -0.3035  1.5237 -1.2151
  519SOL     OW 2997   5.028   3.924  10.815  0.4031  0.1829  0.6716
  519SOL    HW1 2998   4.958   3.900  10.875  0.3815 -1.8456 -0.0873
  519SOL    HW2 2999   4.984   3.970  10.744  0.0464  0.1785  0.8858
  520SOL     OW 3000   1.613   5.474   1.400  0.3483  0.5510  0.0001
  520SOL    HW1 3001   1.692   5.527   1.390  1.6085 -1.3470 -0.7915
  520SOL    HW2 3002   1.551   5.511   1.337  0.9561  1.4839 -0.0688
  521SOL     OW 3003   0.452   5.695   7.418 -0.3255 -0.3630  0.1846
  521SOL    HW1 3004   0.462   5.684   7.324  0.9950 -0.1423  0.2675
  521SOL    HW2 3005   0.495   5.779   7.437 -2.9253  0.9541  0.6505
  522SOL     OW 3006   6.980   1.127  12.300  0.3226  0.1309 -0.2540
  522SOL    HW1 3007   6.894   1.143  12.338  0.4482  0.4607 -0.0978
  522SOL    HW2 3008   6.988   1.032  12.296  0.2274  0.0922  0.3750
  523SOL     OW 3009   4.246   1.150   3.917 -0.2826  0.2912 -0.3919
  523SOL    HW1 3010   4.316   1.092   3.887 -0.4295 -0.3103  0.3905
  523SOL    HW2 3011   4.185   1.153   3.843  0.1488  0.1393 -0.7609
  524SOL     OW 3012   3.129   5.194   4.254  0.1985 -0.4864 -0.2384
  524SOL    HW1 3013   3.187   5.235   4.319 -0.3868 -0.0780  0.0258
  524SOL    HW2 3014   3.152   5.101   4.258  0.9460 -0.3120 -0.2462
  525SOL     OW 3015   4.793   2.239  10.174 -0.0224 -0.5513  0.4786
  525SOL    HW1 3016   4.846   2.266  10.249  0.3711 -0.4643  0.1720
  525SOL    HW2 3017   4.823   2.295  10.102 -0.3167 -0.7106  0.2315
  526SOL     OW 3018   0.694   5.214   9.864 -0.2071  0.3129  0.1395
  526SOL    HW1 3019   0.607   5.198   9.828 -0.7206  2.4255  0.3136
  526SOL    HW2 3020   0.753   5.210   9.789 -1.0411  2.9571 -0.7466
  527SOL     OW 3021   0.537   2.733  10.408  0.2421 -0.2440  0.5762
  527SOL    HW1 3022   0.541   2.651  10.457 -2.7531  0.3463  1.9888
  527SOL    HW2 3023   0.471   2.717  10.340  0.9437  0.4693 -0.3090
  528SOL     OW 3024   6.814   5.536  10.908  0.0551 -0.7042  0.2804
  528SOL    HW1 3025   6.885   5.556  10.969  0.0009 -0.3465  0.2240
  528SOL    HW2 3026   6.760   5.615  10.906 -0.7749 -1.2251  0.9056
  529SOL     OW 3027   2.734   7.541   8.469 -0.0281  0.0514  0.2071
  529SOL    HW1 3028   2.817   7.581   8.443 -0.8127  1.5112 -0.1837
  529SOL    HW2 3029   2.742   7.526   8.563  0.7455  0.0215  0.1370
  530SOL     OW 3030   4.567   7.531   6.326 -0.2070 -0.3610 -0.7161
  530SOL    HW1 3031   4.561   7.436   6.336 -0.3627 -0.2125  1.0271
  530SOL    HW2 3032   4.482   7.556   6.288 -0.5448 -0.8371 -0.2969
  531SOL     OW 3033   5.346   5.555   6.188  0.3299  0.6683  0.1039
  531SOL    HW1 3034   5.336   5.627   6.125 -0.0138  2.2765  1.9191
  531SOL    HW2 3035   5.439   5.533   6.184 -0.2221 -2.1151 -3.8382
  532SOL     OW 3036   1.162   6.510  10.742  0.1307  0.0828  0.4048
  532SOL    HW1 3037   1.222   6.464  10.684  0.1189 -0.1904  0.6056
  532SOL    HW2 3038   1.206   6.594  10.761 -0.2960  0.5890 -0.7535
  533SOL     OW 3039   5.078   0.475   5.331  0.1233  0.0985  0.2624
  533SOL    HW1 3040   5.101   0.547   5.389 -1.9688 -0.9479  2.5493
  533SOL    HW2 3041   5.099   0.396   5.380 -0.2117 -0.8605 -1.0679
  534SOL     OW 3042   2.353   6.943   4.860  0.0960  0.0994 -0.0653
  534SOL    HW1 3043   2.318   6.879   4.921 -2.5319  0.5653 -0.9590
  534SOL    HW2 3044   2.397   7.008   4.915  0.2922 -0.9484  1.0509
  535SOL     OW 3045   4.363   3.765   5.426 -0.4329  0.2716 -0.6234
  535SOL    HW1 3046   4.399   3.846   5.463  1.6631 -0.2374 -1.4252
  535SOL    HW2 3047   4.383   3.698   5.491 -0.9590  0.1584 -0.5735
  536SOL     OW 3048   1.727   7.905   4.355 -0.2975 -0.1589 -0.1306
  536SOL    HW1 3049   1.768   7.956   4.285  0.2685  0.2837  0.5050
  536SOL    HW2 3050   1.644   7.875   4.318 -0.2061  0.4393 -0.8385
  537SOL     OW 3051   4.291   1.290   4.143  0.7309 -0.0065 -0.3855
  537SOL    HW1 3052   4.253   1.246   4.067  0.1687 -0.5335  0.1896
  537SOL    HW2 3053   4.281   1.228   4.215  0.1649  0.9483  0.3888
  538SOL     OW 3054   2.223   3.137   8.656 -0.7273  0.3068 -0.5175
  538SOL    HW1 3055   2.251   3.047   8.639 -0.0038  0.4885 -0.3272
  538SOL    HW2 3056   2.242   3.151   8.749 -0.6129  0.7316 -0.6033
  539SOL     OW 3057   4.621   6.754   3.896 -0.3372  0.3819 -0.3841
  539SOL    HW1 3058   4.627   6.696   3.821 -0.2976  0.6521 -0.5929
  539SOL    HW2 3059   4.634   6.697   3.972 -0.8421  0.0285 -0.5540
  540SOL     OW 3060   1.155   0.892   7.396  0.0438  0.2800 -0.8281
  540SOL    HW1 3061   1.238   0.890   7.443 -0.7865  1.0885  0.7728
  540SOL    HW2 3062   1.090   0.913   7.463 -1.4357 -0.1121 -2.0673
  541SOL     OW 3063   7.440   5.036   4.525  0.0710  0.7718  0.2435
  541SOL    HW1 3064   7.348   5.049   4.504 -0.1802 -1.3942 -0.2623
  541SOL    HW2 3065   7.466   4.961   4.472  1.7258  0.3921  1.5081
  542SOL     OW 3066   4.998   2.070   6.619 -0.9777  0.5961 -0.5916
  542SOL    HW1 3067   4.930   2.089   6.684 -0.7834 -0.0884 -0.1749
  542SOL    HW2 3068   5.069   2.029   6.670 -0.3211  1.1456 -1.0479
  543SOL     OW 3069   7.322   2.992   4.797 -0.6453 -0.1194  0.0386
  543SOL    HW1 3070   7.237   2.948   4.798  0.8842 -3.3451  0.8207
  543SOL    HW2 3071   7.329   3.031   4.710 -2.0452 -1.6453 -0.7960
  544SOL     OW 3072   5.772   6.214   6.891  0.3710  0.2258  0.3881
  544SOL    HW1 3073   5.797   6.218   6.983  1.3546  0.3125  0.1267
  544SOL    HW2 3074   5.819   6.138   6.856  1.2324  1.0843 -0.3889
  545SOL     OW 3075   7.566   0.993   1.803 -0.0467 -0.2854  0.1952
  545SOL    HW1 3076   7.626   0.990   1.878 -0.6424  0.8662  0.7491
  545SOL    HW2 3077   7.540   1.085   1.797 -0.8160 -0.5507 -0.7856
  546SOL     OW 3078   6.308   4.005   4.743  0.1467 -0.1090  0.4088
  546SOL    HW1 3079   6.324   3.964   4.658 -0.7991  0.1793  0.0858
  546SOL    HW2 3080   6.223   3.972   4.771  0.3600 -0.0520  1.1654
  547SOL     OW 3081   5.443   0.899   6.245  0.1384 -0.0556 -0.0083
  547SOL    HW1 3082   5.473   0.829   6.302  0.0398  0.2673  0.4451
  547SOL    HW2 3083   5.479   0.979   6.284  2.3005 -0.0348 -1.8563
  548SOL     OW 3084   2.530   4.589   0.367 -0.1609  0.2144  0.2898
  548SOL    HW1 3085   2.452   4.572   0.314  0.4675 -2.2233  0.0186
  548SOL    HW2 3086   2.560   4.675   0.339 -1.0597 -0.0954 -1.7710
  549SOL     OW 3087   5.882   6.394   8.842 -0.2148  0.1856 -0.4393
  549SOL    HW1 3088   5.804   6.343   8.864  0.2525  0.0571  1.0569
  549SOL    HW2 3089   5.889   6.458   8.913  0.7821  0.4727 -0.7915
  550SOL     OW 3090   7.329   5.318   8.380 -0.2098  0.4908  0.0344
  550SOL    HW1 3091   7.310   5.400   8.426  0.2902  0.7723 -0.2476
  550SOL    HW2 3092   7.423   5.305   8.393 -0.0680  0.5586 -0.8848
  551SOL     OW 3093   2.899   5.183   1.743  0.0494  0.4797  0.9092
  551SOL    HW1 3094   2.833   5.125   1.782  0.6031  1.3453  3.3159
  551SOL    HW2 3095   2.980   5.132   1.747 -0.1793 -0.0667 -0.7790
  552SOL     OW 3096   2.675   7.098   2.198 -0.6162 -0.1477  0.1702
  552SOL    HW1 3097   2.719   7.038   2.138  0.0012  1.0547 -0.6225
  552SOL    HW2 3098   2.582   7.076   2.191 -0.4376 -0.7119 -0.4372
  553SOL     OW 3099   0.953   7.364   9.926 -0.0232 -0.4133 -0.0054
  553SOL    HW1 3100   1.007   7.286   9.907 -0.0218 -0.1862 -1.0270
  553SOL    HW2 3101   1.009   7.438   9.902 -0.4250 -0.1386 -0.1085
  554SOL     OW 3102   0.588   0.517   0.985  0.4642  0.1834 -0.5965
  554SOL    HW1 3103   0.669   0.489   1.028 -0.9791 -0.1081  2.1268
  554SOL    HW2 3104   0.525   0.448   1.005 -1.1340  1.6326 -0.3907
  555SOL     OW 3105   7.293   1.132   2.025  0.1887  0.4679  0.5599
  555SOL    HW1 3106   7.229   1.072   1.986  1.5508 -1.8317  1.6199
  555SOL    HW2 3107   7.338   1.171   1.950  1.5195 -2.4641 -0.3290
  556SOL     OW 3108   1.314   5.363   3.032 -0.5344 -0.7570 -0.5326
  556SOL    HW1 3109   1.291   5.309   2.957 -0.6171 -1.0106 -0.3267
  556SOL    HW2 3110   1.393   5.323   3.068 -0.2677 -0.4057 -0.7153
  557SOL     OW 3111   6.222   7.126   5.311  0.3037 -0.0756 -0.2057
  557SOL    HW1 3112   6.232   7.053   5.249 -0.4978 -0.7043  0.3674
  557SOL    HW2 3113   6.299   7.121   5.367 -0.5023 -1.5680  0.8768
  558SOL     OW 3114   3.071   2.046  11.977 -0.1834  0.4707  0.1393
  558SOL    HW1 3115   3.113   2.097  12.046 -2.0610 -0.3281  1.9963
  558SOL    HW2 3116   3.096   1.955  11.997  0.3884  0.3455 -1.0968
  559SOL     OW 3117   2.670   4.984   1.776  0.3144 -0.0709 -0.0406
  559SOL    HW1 3118   2.598   5.026   1.728  0.9750  1.3896  0.1823
  559SOL    HW2 3119   2.633   4.902   1.807 -0.4961 -0.5242 -2.0349
  560SOL     OW 3120   0.835   2.967   0.626 -0.1949  0.3800  0.8176
  560SOL    HW1 3121   0.922   2.933   0.648  0.0800  0.5600  0.0325
  560SOL    HW2 3122   0.793   2.982   0.710  0.0715 -0.9081  1.1982
  561SOL     OW 3123   1.929   0.962  11.104  0.2493 -0.2640  0.2322
  561SOL    HW1 3124   1.999   1.026  11.116 -0.5340  0.4640  1.0406
  561SOL    HW2 3125   1.943   0.927  11.016 -0.1153  2.0687 -0.8268
  562SOL     OW 3126   2.860   7.918   4.066  0.0773  0.3704 -0.0467
  562SOL    HW1 3127   2.891   8.003   4.097 -2.1085  1.2552 -0.1316
  562SOL    HW2 3128   2.779   7.902   4.114 -0.1218 -1.1595 -0.8184
  563SOL     OW 3129   7.969   5.622   2.019 -0.0752 -0.1426  0.2714
  563SOL    HW1 3130   8.056   5.585   2.006 -0.2637 -0.9715  1.2656
  563SOL    HW2 3131   7.914   5.547   2.043 -1.1141  0.3362 -0.4994
  564SOL     OW 3132   1.911   3.852   3.086  0.5911 -0.1115  0.7923
  564SOL    HW1 3133   1.914   3.891   3.174  2.2019  0.9430  0.3319
  564SOL    HW2 3134   1.891   3.926   3.028  2.1518 -0.2347  0.0437
  565SOL     OW 3135   5.341   5.568   3.306 -0.7617  0.1897 -0.0046
  565SOL    HW1 3136   5.302   5.492   3.348 -0.5114 -0.1278 -0.3382
  565SOL    HW2 3137   5.410   5.596   3.366 -0.4603 -0.2120 -0.1533
  566SOL     OW 3138   3.236   1.444   6.577  0.4669  0.4593 -0.7087
  566SOL    HW1 3139   3.207   1.520   6.526  1.9045  1.4736 -0.0961
  566SOL    HW2 3140   3.329   1.436   6.556  0.2392 -1.5185 -1.1986
  567SOL     OW 3141   4.384   3.505   0.408  0.4691  0.4890 -0.4486
  567SOL    HW1 3142   4.408   3.437   0.345  0.0836 -1.3469  1.2687
  567SOL    HW2 3143   4.294   3.527   0.385  0.0108 -0.8366 -0.0438
  568SOL     OW 3144   4.165   1.416   5.747  0.0790  0.2507 -0.0761
  568SOL    HW1 3145   4.075   1.431   5.776  0.3122  0.6870  0.4295
  568SOL    HW2 3146   4.177   1.321   5.755 -0.3429  0.1848 -0.1811
  569SOL     OW 3147   3.809   5.348   7.197 -0.0967 -0.2114  0.2116
  569SOL    HW1 3148   3.813   5.274   7.136  0.6787 -0.2484  0.2911
  569SOL    HW2 3149   3.802   5.425   7.141  0.4650 -0.2562  0.0692
  570SOL     OW 3150   6.728   2.228   8.697 -0.1083  0.3686 -0.0299
  570SOL    HW1 3151   6.675   2.229   8.778 -1.6539 -3.2993 -0.7871
  570SOL    HW2 3152   6.818   2.222   8.728 -0.6643 -0.9618  1.5291
  571SOL     OW 3153   5.551   1.796   7.925 -0.3611  0.0605  0.1795
  571SOL    HW1 3154   5.485   1.732   7.955 -0.5455 -0.3763 -1.0712
  571SOL    HW2 3155   5.615   1.743   7.878 -0.0033  0.6982 -0.0591
  572SOL     OW 3156   0.342   2.788   3.479  0.0281  0.1001  0.1561
  572SOL    HW1 3157   0.305   2.876   3.466 -1.1766 -0.0908  2.0302
  572SOL    HW2 3158   0.353   2.780   3.573  1.0148 -1.4266 -0.0625
  573SOL     OW 3159   7.963   0.300  10.061  0.4631  0.7399  0.2174
  573SOL    HW1 3160   7.960   0.206  10.042  1.1581  0.8385 -0.4051
  573SOL    HW2 3161   7.916   0.341   9.989 -0.8082  0.8097  1.0554
  574SOL     OW 3162   2.509   2.327   5.150 -0.6812  0.3289  0.2525
  574SOL    HW1 3163   2.496   2.319   5.055 -0.8576 -0.8047  0.3489
  574SOL    HW2 3164   2.474   2.413   5.172 -1.6739  0.1622 -0.5596
  575SOL     OW 3165   3.507   7.481   2.847 -0.8618 -0.4000  0.2827
  575SOL    HW1 3166   3.507   7.532   2.766 -1.4843 -0.2002  0.3996
  575SOL    HW2 3167   3.533   7.393   2.819  0.0250 -0.0766  0.0506
  576SOL     OW 3168   5.688   3.658   0.125 -0.1078  0.0666 -0.1017
  576SOL    HW1 3169   5.693   3.570   0.089  2.0329  0.6092 -1.3094
  576SOL    HW2 3170   5.627   3.705   0.068  1.3531  0.2470 -1.5572
  577SOL     OW 3171   1.164   6.147   1.605  0.3982 -0.0512  0.3372
  577SOL    HW1 3172   1.158   6.071   1.662 -1.5179 -0.7703 -0.7365
  577SOL    HW2 3173   1.255   6.150   1.578  0.4662 -2.1224  0.2088
  578SOL     OW 3174   6.187   4.358   1.109 -0.3900  0.8183 -0.3848
  578SOL    HW1 3175   6.216   4.393   1.025  0.8070  0.9394  0.0486
  578SOL    HW2 3176   6.219   4.267   1.108 -2.0522  0.2131 -0.8356
  579SOL     OW 3177   4.721   2.111   0.080  0.1978  0.0632 -0.0969
  579SOL    HW1 3178   4.753   2.026   0.109  2.3042  1.0336  0.6156
  579SOL    HW2 3179   4.714   2.163   0.160 -0.9963  0.6027 -0.5285
  580SOL     OW 3180   4.009   6.844   4.961 -0.0315  0.0343 -0.4584
  580SOL    HW1 3181   3.943   6.910   4.985 -0.6399 -1.4831  2.5424
  580SOL    HW2 3182   3.960   6.762   4.953  1.3563 -1.1838  2.0550
  581SOL     OW 3183   0.432   0.583   7.862  0.3517  0.4756  0.3220
  581SOL    HW1 3184   0.449   0.641   7.936  1.7925  0.8924 -0.2964
  581SOL    HW2 3185   0.469   0.499   7.888 -1.2990 -0.0721  1.0191
  582SOL     OW 3186   4.235   1.045   9.137 -0.1820 -0.2949  0.4117
  582SOL    HW1 3187   4.179   1.099   9.081  1.0959 -0.0075 -0.6548
  582SOL    HW2 3188   4.257   0.970   9.082  1.5969  0.2938  0.2728
  583SOL     OW 3189   7.475   3.226   3.108  0.4396  0.4768  0.2344
  583SOL    HW1 3190   7.386   3.222   3.143  0.6546  1.6318  0.9977
  583SOL    HW2 3191   7.469   3.286   3.034 -0.4541 -3.5809 -3.3704
  584SOL     OW 3192   5.292   5.720  11.149  0.1617  0.3578  0.2282
  584SOL    HW1 3193   5.334   5.645  11.190  1.4470  0.1154 -1.4121
  584SOL    HW2 3194   5.327   5.796  11.194 -0.8694  0.0259  1.6540
  585SOL     OW 3195   0.542   4.200   2.332 -0.2098 -0.0247 -0.5292
  585SOL    HW1 3196   0.465   4.201   2.389 -1.1598  0.3571 -1.7867
  585SOL    HW2 3197   0.516   4.250   2.255  0.6861 -1.3729 -1.7579
  586SOL     OW 3198   0.089   3.516   2.254  0.1268 -0.1609 -0.0715
  586SOL    HW1 3199   0.013   3.572   2.235 -0.1188 -0.6364 -0.5110
  586SOL    HW2 3200   0.077   3.440   2.198  0.8835 -0.2878 -0.0674
  587SOL     OW 3201   4.122   0.800   9.498 -0.5784  0.4648  0.0199
  587SOL    HW1 3202   4.144   0.831   9.586 -1.3761 -0.2311  0.4769
  587SOL    HW2 3203   4.204   0.764   9.464 -0.8535 -1.8864  1.6062
  588SOL     OW 3204   3.712   1.721   2.271  0.1547  0.2488  0.1881
  588SOL    HW1 3205   3.636   1.667   2.293  0.1055 -0.0973 -0.7967
  588SOL    HW2 3206   3.761   1.668   2.208  0.8968  0.7244  0.3560
  589SOL     OW 3207   7.215   2.761  10.945  0.2251  0.6112 -0.1051
  589SOL    HW1 3208   7.125   2.791  10.946  0.3253  1.0285  2.5531
  589SOL    HW2 3209   7.237   2.746  11.037  2.4766 -0.6964 -0.7659
  590SOL     OW 3210   1.723   0.063   1.889 -0.1721  0.3646  0.2495
  590SOL    HW1 3211   1.762   0.048   1.975  1.5429 -1.8088 -0.7821
  590SOL    HW2 3212   1.756   0.149   1.862  2.6401 -0.6319  0.1675
  591SOL     OW 3213   7.020   6.013   0.231  0.3471  0.6422  0.0585
  591SOL    HW1 3214   7.075   5.986   0.305 -0.2964  2.7199  1.3949
  591SOL    HW2 3215   7.063   6.092   0.197  0.6584 -0.3114 -1.8730
  592SOL     OW 3216   4.516   3.908   1.981  0.7394 -0.2394  0.6072
  592SOL    HW1 3217   4.532   3.907   1.887 -2.3442 -2.1359 -0.0204
  592SOL    HW2 3218   4.546   3.822   2.012 -1.8483 -1.2589  0.5263
  593SOL     OW 3219   1.109   2.451  11.767 -0.1335  0.3231  0.1297
  593SOL    HW1 3220   1.119   2.420  11.857  0.5323  0.1628  0.0026
  593SOL    HW2 3221   1.019   2.485  11.764 -1.6256 -3.2234 -0.2315
  594SOL     OW 3222   0.191   1.329  10.611 -0.3247  0.1040  0.4410
  594SOL    HW1 3223   0.279   1.364  10.623  0.3047  0.3731 -3.5040
  594SOL    HW2 3224   0.135   1.407  10.604 -0.8201 -0.0519  2.2460
  595SOL     OW 3225   0.085   6.334   5.190 -0.0154  0.5178 -0.3228
  595SOL    HW1 3226   0.010   6.288   5.154  0.7757 -0.3782 -0.8544
  595SOL    HW2 3227   0.089   6.306   5.281  0.9521 -1.1822 -0.8422
  596SOL     OW 3228   5.923   0.384   3.728 -0.2358 -0.2962 -0.3467
  596SOL    HW1 3229   5.873   0.416   3.653  1.0169  1.1919 -0.6014
  596SOL    HW2 3230   5.908   0.290   3.729 -1.1057 -0.2062 -1.8357
  597SOL     OW 3231   5.553   6.614   8.513  0.3298 -0.0495  0.0307
  597SOL    HW1 3232   5.619   6.550   8.540 -1.1123 -1.2768  0.7815
  597SOL    HW2 3233   5.600   6.672   8.453  2.6196  0.4160  2.1206
  598SOL     OW 3234   0.620   1.320   4.769 -0.1475 -0.3327 -0.0079
  598SOL    HW1 3235   0.549   1.366   4.724 -0.2985 -0.3933  0.1648
  598SOL    HW2 3236   0.700   1.353   4.728 -0.2462  0.1793  0.1948
  599SOL     OW 3237   2.461   4.152   4.488  0.5273 -0.3831  0.0780
  599SOL    HW1 3238   2.554   4.164   4.506  0.2234  2.2217  0.3341
  599SOL    HW2 3239   2.450   4.182   4.398 -0.4089  2.0551  0.9089
  600SOL     OW 3240   2.731   3.389  11.609  0.6691  0.2317 -0.2763
  600SOL    HW1 3241   2.680   3.387  11.690  1.9829  0.4711  0.5957
  600SOL    HW2 3242   2.819   3.361  11.636  0.7711 -1.1754 -1.9180
  601SOL     OW 3243   7.470   3.289   2.494  0.0158 -0.1381  0.3311
  601SOL    HW1 3244   7.451   3.348   2.421  0.7264 -0.7972 -0.3928
  601SOL    HW2 3245   7.565   3.293   2.505 -0.0698 -0.1117  1.1732
  602SOL     OW 3246   6.387   2.982   0.878 -0.6543  0.6007  0.8864
  602SOL    HW1 3247   6.371   2.942   0.964 -0.8358  0.6256  0.8636
  602SOL    HW2 3248   6.468   2.940   0.847 -1.4129 -0.5439  0.3882
  603SOL     OW 3249   3.872   3.573   1.961 -0.3175 -0.3850 -0.2305
  603SOL    HW1 3250   3.814   3.497   1.953 -1.9034  0.7628 -0.1003
  603SOL    HW2 3251   3.891   3.598   1.870  0.8604 -1.3710 -0.2844
  604SOL     OW 3252   4.133   7.800   7.632 -0.2345 -0.2738 -0.1720
  604SOL    HW1 3253   4.166   7.743   7.701  1.3625  0.9321  0.1021
  604SOL    HW2 3254   4.051   7.835   7.667  0.1523 -0.2986  0.7704
  605SOL     OW 3255   6.681   0.771   6.650  0.0797  0.0876  0.3333
  605SOL    HW1 3256   6.772   0.793   6.670  0.5484 -0.2584 -1.2538
  605SOL    HW2 3257   6.635   0.781   6.733  1.6752 -0.3286  1.3154
  606SOL     OW 3258   4.983   5.097  12.196 -0.3896 -0.1797 -0.5304
  606SOL    HW1 3259   4.997   5.181  12.240 -2.0391  0.2015 -0.6547
  606SOL    HW2 3260   4.908   5.113  12.138  0.1966 -1.3400 -1.6729
  607SOL     OW 3261   4.467   1.951  11.147  0.1410  0.1116 -0.3513
  607SOL    HW1 3262   4.392   1.913  11.100 -2.5769  1.0815  2.7853
  607SOL    HW2 3263   4.489   1.887  11.214  1.2307  0.4622 -0.3521
  608SOL     OW 3264   5.532   7.850   7.041  0.2146  0.5053  0.3627
  608SOL    HW1 3265   5.440   7.839   7.068  0.8285 -2.8925  1.5205
  608SOL    HW2 3266   5.528   7.850   6.946 -1.0042  0.2516  0.3865
  609SOL     OW 3267   2.932   3.414   8.912 -0.8598 -0.2611  0.2060
  609SOL    HW1 3268   2.916   3.356   8.986  2.1299  0.3974  1.5141
  609SOL    HW2 3269   2.972   3.358   8.845 -2.4617 -0.6096 -0.5094
  610SOL     OW 3270   1.427   2.683   1.982 -0.5231 -0.4541  0.4385
  610SOL    HW1 3271   1.469   2.630   1.914 -0.7986  0.1524 -0.2128
  610SOL    HW2 3272   1.333   2.675   1.965 -0.6538 -1.0999  1.3623
  611SOL     OW 3273   4.311   6.920   8.508 -0.4754  0.3037 -0.3507
  611SOL    HW1 3274   4.221   6.949   8.519 -0.4887  0.1620 -0.0492
  611SOL    HW2 3275   4.320   6.848   8.571 -0.2722  0.0532 -0.6675
  612SOL     OW 3276   5.316   1.400   7.808 -0.3852  0.0465 -0.1286
  612SOL    HW1 3277   5.310   1.439   7.895 -2.4406  1.4730 -0.8573
  612SOL    HW2 3278   5.395   1.346   7.813 -0.4845 -0.0260  2.6411
  613SOL     OW 3279   5.119   5.139  10.409  0.4321 -0.4063  0.0623
  613SOL    HW1 3280   5.038   5.096  10.436  0.5396 -1.0283 -0.5847
  613SOL    HW2 3281   5.152   5.179  10.490  0.2843 -1.4652  0.6665
  614SOL     OW 3282   1.410   5.723   9.062 -0.1370  0.0328 -0.1586
  614SOL    HW1 3283   1.454   5.666   9.000 -1.9877 -1.1761 -0.4427
  614SOL    HW2 3284   1.335   5.672   9.092  0.1262  0.9660  2.3319
  615SOL     OW 3285   2.652   2.741   6.565  0.9965 -0.2230 -0.1522
  615SOL    HW1 3286   2.629   2.708   6.478  1.1287 -2.2080  0.5152
  615SOL    HW2 3287   2.694   2.825   6.549  0.0062 -0.0156 -1.9156
  616SOL     OW 3288   7.938   3.506   7.994  0.0463  0.0498  0.3202
  616SOL    HW1 3289   7.908   3.453   7.920 -0.0801  1.9477 -1.0548
  616SOL    HW2 3290   8.023   3.539   7.967 -1.3848  3.4710 -0.5518
  617SOL     OW 3291   7.914   2.656  10.045 -0.2165  0.0631  0.6234
  617SOL    HW1 3292   7.821   2.638  10.029 -0.7094  1.2647  1.9439
  617SOL    HW2 3293   7.946   2.692   9.962 -1.0593  0.1196  0.3162
  618SOL     OW 3294   6.890   0.203   5.142  0.0530 -0.0134 -0.0313
  618SOL    HW1 3295   6.817   0.263   5.158  1.2785  1.1901  1.4187
  618SOL    HW2 3296   6.866   0.122   5.187 -0.5875  0.2167  0.0448
  619SOL     OW 3297   5.326   0.464   7.216  0.2900 -0.3141  0.3068
  619SOL    HW1 3298   5.261   0.409   7.260  0.7069 -0.7472  0.4013
  619SOL    HW2 3299   5.277   0.540   7.185 -0.3807 -0.8966 -0.1248
  620SOL     OW 3300   3.124   4.752  10.068 -0.1741  0.6271  0.6051
  620SOL    HW1 3301   3.105   4.720   9.980  0.8103  1.9268 -0.1242
  620SOL    HW2 3302   3.160   4.676  10.114 -0.7953 -0.0947 -0.0710
  621SOL     OW 3303   2.815   5.429  11.493  0.1050  0.5702  0.1363
  621SOL    HW1 3304   2.798   5.488  11.419  5.6336  2.2776 -0.2557
  621SOL    HW2 3305   2.812   5.342  11.454 -1.3512  1.0533 -0.9732
  622SOL     OW 3306   5.196   2.236  10.218  0.4098 -0.1704  0.2655
  622SOL    HW1 3307   5.120   2.235  10.275 -0.0551 -0.3243 -0.3496
  622SOL    HW2 3308   5.271   2.232  10.278 -0.0717 -0.5833  0.8496
  623SOL     OW 3309   1.526   4.604   4.672 -0.0502  0.4138  0.3541
  623SOL    HW1 3310   1.573   4.529   4.710  0.3873 -0.6061 -2.0385
  623SOL    HW2 3311   1.593   4.672   4.664  0.5187 -0.2638 -0.9415
  624SOL     OW 3312   0.845   6.369   8.502 -0.1784  0.7553  0.3420
  624SOL    HW1 3313   0.831   6.339   8.592  0.5379  0.0474  0.2310
  624SOL    HW2 3314   0.854   6.464   8.509 -1.2904  0.8352  0.8612
  625SOL     OW 3315   2.467   3.990  10.496 -0.6605 -0.3180 -0.0343
  625SOL    HW1 3316   2.498   3.990  10.405  2.2090 -0.6873  0.8501
  625SOL    HW2 3317   2.475   4.082  10.523 -0.6502 -0.3622  0.1094
  626SOL     OW 3318   1.685   7.979  10.340  0.2629 -0.3166 -0.4714
  626SOL    HW1 3319   1.690   7.920  10.265 -1.2143  1.6048 -2.1905
  626SOL    HW2 3320   1.606   7.952  10.387  0.5731 -0.8095 -0.2228
  627SOL     OW 3321   6.127   3.831  12.066  0.2987  0.1992  0.5099
  627SOL    HW1 3322   6.151   3.900  12.004  0.1247  2.2833  2.6182
  627SOL    HW2 3323   6.046   3.861  12.106 -0.0265 -1.4621  1.1812
  628SOL     OW 3324   0.365   5.286  11.413 -0.0438 -0.5004 -0.1842
  628SOL    HW1 3325   0.277   5.248  11.424 -0.0605 -1.0247 -1.9847
  628SOL    HW2 3326   0.356   5.347  11.340  0.9618 -0.0620  0.0373
  629SOL     OW 3327   5.232   0.206  10.860 -0.3001  0.4521 -0.3272
  629SOL    HW1 3328   5.266   0.151  10.790 -0.7373  0.1536 -0.3117
  629SOL    HW2 3329   5.221   0.146  10.934 -1.5655  0.3775 -0.5592
  630SOL     OW 3330   1.204   3.628  11.017  0.0490  0.2480  0.6140
  630SOL    HW1 3331   1.269   3.695  10.997  1.3655 -1.3444 -0.8105
  630SOL    HW2 3332   1.135   3.643  10.952  0.5264  0.0075  0.0369
  631SOL     OW 3333   0.593   4.470   9.174 -0.5028  0.0349  0.5178
  631SOL    HW1 3334   0.631   4.550   9.208  0.2992 -0.1261  0.0245
  631SOL    HW2 3335   0.582   4.414   9.251  2.0562 -0.6385  0.4670
  632SOL     OW 3336   0.285   7.033   8.975  0.1938 -0.4156  0.0731
  632SOL    HW1 3337   0.272   6.953   9.025 -0.8495 -0.5164 -0.3400
  632SOL    HW2 3338   0.197   7.072   8.968  0.9392  1.9717  2.2751
  633SOL     OW 3339   7.384   0.049  11.341  0.2360 -0.9326  0.2217
  633SOL    HW1 3340   7.428   0.134  11.335 -0.7744 -0.3882  0.2767
  633SOL    HW2 3341   7.371   0.034  11.434 -0.1963 -0.8129  0.1849
  634SOL     OW 3342   4.533   4.044   1.176  0.1554  0.0703  0.0483
  634SOL    HW1 3343   4.551   4.091   1.258 -0.1041  1.7590 -0.8172
  634SOL    HW2 3344   4.555   4.107   1.107 -2.6449 -0.1048 -1.1477
  635SOL     OW 3345   3.543   2.588  12.442  0.4503 -0.2080 -0.1189
  635SOL    HW1 3346   3.615   2.526  12.450 -1.4308 -2.4119  0.7773
  635SOL    HW2 3347   3.471   2.547  12.489 -1.0943  2.4108 -0.0220
  636SOL     OW 3348   1.791   1.997   9.842 -0.3048 -0.0541  0.0655
  636SOL    HW1 3349   1.784   1.943   9.920  1.5340 -0.2769  0.1064
  636SOL    HW2 3350   1.813   2.084   9.874  0.4115 -0.1364 -0.1878
  637SOL     OW 3351   3.262   2.145  10.368 -0.2100 -0.0885 -1.1047
  637SOL    HW1 3352   3.269   2.127  10.462  1.0869  4.4360 -0.0757
  637SOL    HW2 3353   3.175   2.113  10.344 -0.5330 -1.5118  1.5528
  638SOL     OW 3354   1.848   3.194   3.324 -0.3528 -0.1007  0.4052
  638SOL    HW1 3355   1.840   3.267   3.386  1.6545 -0.5194  1.2352
  638SOL    HW2 3356   1.772   3.202   3.267 -1.5931  1.0584  2.1393
  639SOL     OW 3357   7.266   4.566   5.074 -0.1992 -0.5007  0.0378
  639SOL    HW1 3358   7.322   4.544   5.149  0.3464 -2.7331 -0.9485
  639SOL    HW2 3359   7.178   4.540   5.101 -0.0356 -1.1152 -0.0139
  640SOL     OW 3360   2.257   7.230   3.457  0.0492 -0.8408 -0.3818
  640SOL    HW1 3361   2.203   7.175   3.514  0.0735  1.2231  1.8111
  640SOL    HW2 3362   2.200   7.304   3.435  1.4364  0.6389  0.7557
  641SOL     OW 3363   0.879   5.976  10.153 -0.4085 -0.2180 -0.1780
  641SOL    HW1 3364   0.791   5.957  10.185  0.2118  0.1351  1.8624
  641SOL    HW2 3365   0.937   5.944  10.222  1.0351  0.3956 -1.0651
  642SOL     OW 3366   1.390   7.722   0.713 -0.2560 -0.2193  0.4278
  642SOL    HW1 3367   1.429   7.805   0.738  1.0549 -1.1281  1.4977
  642SOL    HW2 3368   1.431   7.701   0.629 -0.6138  0.2157  0.1390
  643SOL     OW 3369   4.315   5.434   1.003 -0.0275 -0.4124  0.6321
  643SOL    HW1 3370   4.336   5.527   1.012  0.6724 -0.7387  3.0296
  643SOL    HW2 3371   4.391   5.388   1.037 -0.1721 -1.9217 -0.9419
  644SOL     OW 3372   4.175   6.461   6.668 -0.7225  0.0560  0.8369
  644SOL    HW1 3373   4.227   6.522   6.615 -0.3849 -0.9968 -0.0954
  644SOL    HW2 3374   4.184   6.493   6.758 -1.0044  1.6839  0.3279
  645SOL     OW 3375   4.791   4.870   4.295 -0.2918 -0.1072 -0.2039
  645SOL    HW1 3376   4.823   4.960   4.306  0.0196 -0.4534  2.2807
  645SOL    HW2 3377   4.699   4.874   4.322 -0.4750 -0.4295 -0.7580
  646SOL     OW 3378   5.942   0.353   1.395 -0.6503  0.3674 -0.2470
  646SOL    HW1 3379   6.003   0.380   1.463 -0.3309  0.1816 -0.4586
  646SOL    HW2 3380   5.931   0.430   1.340 -1.1573  0.6163  0.1927
  647SOL     OW 3381   7.353   0.937   9.089 -0.3486 -0.5677 -0.0314
  647SOL    HW1 3382   7.314   0.945   9.176 -0.6693 -0.4626 -0.1853
  647SOL    HW2 3383   7.437   0.893   9.105 -0.4274 -0.5938  0.3237
  648SOL     OW 3384   0.290   1.420   9.476 -0.0271  0.6717 -0.4455
  648SOL    HW1 3385   0.306   1.458   9.562 -1.5588  1.4463 -0.4731
  648SOL    HW2 3386   0.248   1.336   9.494  2.9995 -0.9923 -0.3978
  649SOL     OW 3387   1.838   0.645   9.372 -0.2698  0.5749 -0.2511
  649SOL    HW1 3388   1.867   0.632   9.462 -0.0339 -1.5002 -0.5699
  649SOL    HW2 3389   1.753   0.599   9.367  0.1016 -0.0554 -1.2532
  650SOL     OW 3390   0.878   1.391   4.663 -0.2109 -0.0256  0.1569
  650SOL    HW1 3391   0.888   1.484   4.683 -0.2845  0.0299 -0.0600
  650SOL    HW2 3392   0.851   1.389   4.572  0.6810 -0.2969 -0.1197
  651SOL     OW 3393   4.028   5.733  10.172  0.1212 -0.6464 -0.1366
  651SOL    HW1 3394   4.066   5.796  10.111 -1.5122 -0.1530 -0.7010
  651SOL    HW2 3395   4.027   5.650  10.124 -1.8847 -0.1008 -1.1739
  652SOL     OW 3396   2.455   7.476   6.441 -0.5242  0.3128  0.1857
  652SOL    HW1 3397   2.502   7.532   6.380 -1.1654  0.4539 -0.1858
  652SOL    HW2 3398   2.499   7.391   6.435 -1.0918  0.0821 -1.1133
  653SOL     OW 3399   5.646   6.736   1.371  0.1521 -0.0165 -0.4003
  653SOL    HW1 3400   5.703   6.811   1.390  1.0108 -0.2776 -1.7677
  653SOL    HW2 3401   5.661   6.718   1.278 -1.5093 -0.6726 -0.5788
  654SOL     OW 3402   7.745   0.215   2.505  0.8131 -0.3179 -0.4361
  654SOL    HW1 3403   7.729   0.270   2.582  1.2425  0.1819 -0.6975
  654SOL    HW2 3404   7.835   0.185   2.514  1.5271  1.2608 -1.6467
  655SOL     OW 3405   2.942   6.910   1.709  0.4156  0.1627  0.4436
  655SOL    HW1 3406   2.850   6.913   1.681 -0.0097 -1.3290  1.5271
  655SOL    HW2 3407   2.982   6.847   1.649  1.4036  2.5986 -1.6325
  656SOL     OW 3408   3.969   2.335   8.911  0.0862  0.7709  0.0738
  656SOL    HW1 3409   3.991   2.427   8.896  0.2197  0.8214  0.5730
  656SOL    HW2 3410   3.879   2.336   8.942 -0.6983  0.5589 -2.0284
  657SOL     OW 3411   5.388   1.352   1.856  0.2132 -0.7401  0.6756
  657SOL    HW1 3412   5.378   1.371   1.763 -1.5196  0.0359  0.9729
  657SOL    HW2 3413   5.305   1.381   1.895  1.0756 -0.6287  2.5213
  658SOL     OW 3414   0.913   3.368   2.343 -0.5346  0.3431 -0.1757
  658SOL    HW1 3415   0.956   3.450   2.320 -1.0182  0.2135 -1.6997
  658SOL    HW2 3416   0.959   3.336   2.420  0.0220  1.7613  0.0978
  659SOL     OW 3417   7.121   1.123   6.064 -0.1427 -0.3856 -0.1051
  659SOL    HW1 3418   7.165   1.148   5.982  0.4014  1.8262  0.7910
  659SOL    HW2 3419   7.190   1.130   6.131 -1.1555  0.4011  0.9015
  660SOL     OW 3420   4.622   4.649  11.492 -0.3266  0.0708 -0.0566
  660SOL    HW1 3421   4.586   4.734  11.517 -1.6566 -0.1131 -1.2140
  660SOL    HW2 3422   4.700   4.670  11.440 -0.2850  0.5723  0.2111
  661SOL     OW 3423   0.701   5.137   1.704 -0.5315  0.2745  0.2858
  661SOL    HW1 3424   0.635   5.183   1.651 -0.1276  1.9972  1.2093
  661SOL    HW2 3425   0.685   5.168   1.793 -0.4738 -1.7165  1.0497
  662SOL     OW 3426   3.045   4.362   0.909  0.1195 -0.3457  0.0821
  662SOL    HW1 3427   2.966   4.403   0.872  0.5689  1.7203  1.2668
  662SOL    HW2 3428   3.012   4.290   0.962 -1.1611  1.3899  1.7639
  663SOL     OW 3429   3.373   6.487   6.395  0.0329  0.1983 -0.3706
  663SOL    HW1 3430   3.347   6.563   6.343  0.2732  1.8746  1.8103
  663SOL    HW2 3431   3.293   6.461   6.441  0.0444 -0.6318 -0.8146
  664SOL     OW 3432   1.623   4.706  10.452  0.0317  0.1273 -0.2734
  664SOL    HW1 3433   1.668   4.651  10.516 -0.1141 -2.4171 -2.2079
  664SOL    HW2 3434   1.531   4.703  10.478 -0.1452 -1.5557 -0.9579
  665SOL     OW 3435   5.874   5.754  11.438 -0.1691  0.3104  0.0367
  665SOL    HW1 3436   5.884   5.740  11.532 -0.3886  2.3964  0.4198
  665SOL    HW2 3437   5.939   5.696  11.398  2.6780  2.0964  1.6972
  666SOL     OW 3438   4.800   5.563   4.436  0.5150  0.1473 -0.5852
  666SOL    HW1 3439   4.824   5.555   4.528  0.9353  1.8832 -0.4997
  666SOL    HW2 3440   4.706   5.544   4.434 -0.3141  3.3525  0.8348
  667SOL     OW 3441   4.796   4.067   9.788 -0.3280  0.2808 -0.2548
  667SOL    HW1 3442   4.872   4.105   9.744  2.4908 -2.1277  2.0807
  667SOL    HW2 3443   4.833   4.020   9.863 -4.2288 -0.6946  1.3054
  668SOL     OW 3444   3.410   1.162   8.591 -0.1526 -0.4211 -0.0729
  668SOL    HW1 3445   3.370   1.099   8.651  2.0163 -2.5589 -0.7203
  668SOL    HW2 3446   3.474   1.210   8.644 -1.2001  0.7012  0.2211
  669SOL     OW 3447   0.623   0.406   7.993 -0.0056 -0.4067  0.3440
  669SOL    HW1 3448   0.613   0.311   7.984 -0.4889 -0.4506  1.2505
  669SOL    HW2 3449   0.590   0.425   8.081  1.0175  0.4712  0.5446
  670SOL     OW 3450   1.845   1.644   7.404  0.3239 -0.1801 -0.1685
  670SOL    HW1 3451   1.896   1.721   7.429  1.9297 -0.9389 -0.9003
  670SOL    HW2 3452   1.835   1.595   7.485  1.0026 -0.1374 -0.0483
  671SOL     OW 3453   5.074   2.222   4.801  0.2169 -0.3130 -0.0558
  671SOL    HW1 3454   5.041   2.283   4.735  0.8177  1.4956  1.2144
  671SOL    HW2 3455   5.020   2.239   4.878  1.5765 -0.0525  0.8775
  672SOL     OW 3456   0.785   2.770   9.681  0.0769 -0.0795  0.2114
  672SOL    HW1 3457   0.713   2.832   9.672 -1.0697 -1.2034  1.1486
  672SOL    HW2 3458   0.851   2.817   9.732 -1.2546  0.0350  1.9233
  673SOL     OW 3459   7.666   7.548   9.212  0.2060  0.0289 -0.4911
  673SOL    HW1 3460   7.678   7.494   9.134  1.1530 -0.3082 -0.1352
  673SOL    HW2 3461   7.588   7.600   9.194  0.4888  0.0552 -1.7154
  674SOL     OW 3462   6.712   7.874   0.442  0.3501 -0.3302  0.2686
  674SOL    HW1 3463   6.674   7.948   0.488 -0.6515  0.4336 -1.6552
  674SOL    HW2 3464   6.678   7.797   0.488  0.1444  0.3822  1.3442
  675SOL     OW 3465   5.985   0.891  12.274 -0.0217  0.6953  0.4942
  675SOL    HW1 3466   5.922   0.832  12.231  0.3946  1.3503 -1.0757
  675SOL    HW2 3467   6.041   0.832  12.324  0.7100 -0.3586 -1.4474
  676SOL     OW 3468   5.626   5.249   1.948 -0.0596  0.3899  0.2648
  676SOL    HW1 3469   5.579   5.181   1.997  1.0571  0.0061  0.8370
  676SOL    HW2 3470   5.711   5.255   1.992  0.6937  0.5762 -1.1696
  677SOL     OW 3471   1.266   4.524   4.106 -0.2571  0.3994 -0.5269
  677SOL    HW1 3472   1.171   4.515   4.110 -0.1761 -0.3198 -0.0696
  677SOL    HW2 3473   1.292   4.470   4.031  0.0139 -1.5456  0.8790
  678SOL     OW 3474   0.100   4.285  10.520 -0.6600 -0.3319 -0.1222
  678SOL    HW1 3475   0.169   4.330  10.569 -1.1169  0.1706  0.0626
  678SOL    HW2 3476   0.036   4.259  10.587 -0.0074 -2.0103 -0.1027
  679SOL     OW 3477   0.563   7.788  11.790 -0.1723  0.2023  0.0002
  679SOL    HW1 3478   0.589   7.804  11.880  0.9136  0.7817 -0.4000
  679SOL    HW2 3479   0.518   7.704  11.793 -1.2943  0.8140  1.2796
  680SOL     OW 3480   4.778   7.831   7.749  0.4909 -0.7730 -0.6015
  680SOL    HW1 3481   4.860   7.877   7.767  0.6903 -1.3938  0.1200
  680SOL    HW2 3482   4.802   7.762   7.688  0.5437 -1.0487 -0.2741
  681SOL     OW 3483   6.762   6.958   9.638  0.6159  0.4683 -0.3705
  681SOL    HW1 3484   6.702   6.898   9.595  1.7409 -1.5457  0.7053
  681SOL    HW2 3485   6.730   7.045   9.616 -2.1412 -0.5103 -0.5735
  682SOL     OW 3486   7.692   4.443   4.152 -0.1338 -0.2113 -0.6981
  682SOL    HW1 3487   7.718   4.409   4.066 -0.6695 -0.4351 -0.7824
  682SOL    HW2 3488   7.771   4.438   4.206  0.5648  1.1623 -1.5444
  683SOL     OW 3489   0.649   6.788   2.066 -0.2694 -0.4488  0.2330
  683SOL    HW1 3490   0.657   6.696   2.091 -1.4350 -0.0327  2.4241
  683SOL    HW2 3491   0.563   6.794   2.024  0.1141 -0.4641 -0.5766
  684SOL     OW 3492   1.746   2.626  10.927  0.0754  0.2031  0.6199
  684SOL    HW1 3493   1.675   2.638  10.864  1.2254  1.1787 -0.5355
  684SOL    HW2 3494   1.804   2.562  10.885  0.6894  0.6194  0.8409
  685SOL     OW 3495   3.037   3.601   8.617 -0.7794 -0.8092 -0.2766
  685SOL    HW1 3496   3.043   3.697   8.619 -0.1960 -0.8498  0.7307
  685SOL    HW2 3497   3.128   3.571   8.619 -0.9458 -1.3952 -0.9933
  686SOL     OW 3498   0.888   2.040   9.468  0.0179 -0.1986 -0.2119
  686SOL    HW1 3499   0.942   2.099   9.416 -0.6304 -0.3124 -1.0322
  686SOL    HW2 3500   0.823   2.006   9.406  0.1209 -1.4525  0.3286
  687SOL     OW 3501   3.953   7.384   2.965 -0.0726  0.0800  0.0982
  687SOL    HW1 3502   3.942   7.313   3.029 -1.3227 -0.2749 -0.4805
  687SOL    HW2 3503   3.889   7.450   2.991 -0.7982 -0.1924 -0.9391
  688SOL     OW 3504   7.622   1.420   8.311  0.1584  0.3076 -0.2036
  688SOL    HW1 3505   7.676   1.431   8.389  0.9279 -0.0256 -0.6677
  688SOL    HW2 3506   7.623   1.325   8.295 -0.2389  0.3446 -0.4399
  689SOL     OW 3507   5.517   4.609   3.419  0.6569  0.2306 -0.3422
  689SOL    HW1 3508   5.514   4.532   3.362 -1.0324 -0.3086  0.3931
  689SOL    HW2 3509   5.581   4.667   3.378  2.3939 -1.7595 -0.6152
  690SOL     OW 3510   1.583   6.590   7.580 -0.2908 -0.2117  0.0694
  690SOL    HW1 3511   1.672   6.564   7.557 -0.4965 -0.5008 -0.4166
  690SOL    HW2 3512   1.531   6.510   7.570 -0.5099 -0.1926  0.9169
  691SOL     OW 3513   3.793   1.774   7.930  0.1339  0.0438 -0.5778
  691SOL    HW1 3514   3.815   1.682   7.947 -1.9850 -0.4378 -0.1559
  691SOL    HW2 3515   3.865   1.823   7.970  0.6837 -1.3981  0.2958
  692SOL     OW 3516   6.852   5.137   2.463  0.0827  0.0091 -0.0663
  692SOL    HW1 3517   6.772   5.190   2.457 -0.8312 -1.4165 -0.9984
  692SOL    HW2 3518   6.865   5.104   2.374  1.3310 -0.3485  0.2338
  693SOL     OW 3519   7.722   0.768   5.245  0.0414  0.2460 -0.0777
  693SOL    HW1 3520   7.667   0.747   5.170 -0.7178  2.6257 -0.2653
  693SOL    HW2 3521   7.790   0.701   5.244 -2.4560 -2.4789 -0.1809
  694SOL     OW 3522   0.551   4.410   3.784  0.3178  0.2481 -0.3818
  694SOL    HW1 3523   0.583   4.500   3.779  0.4772  0.2637  0.6770
  694SOL    HW2 3524   0.472   4.410   3.730 -1.0277  1.6418  1.4308
  695SOL     OW 3525   5.016   5.035  11.313  0.4713  0.0854 -0.1103
  695SOL    HW1 3526   4.959   5.040  11.390  0.3828  1.3690 -0.2301
  695SOL    HW2 3527   5.063   5.119  11.313  0.7535 -0.0596 -1.2359
  696SOL     OW 3528   1.550   6.427   6.285  0.8738 -0.1279 -0.1094
  696SOL    HW1 3529   1.495   6.505   6.287  0.9101 -0.0842 -0.7155
  696SOL    HW2 3530   1.639   6.459   6.299  0.8380 -0.1194  0.1155
  697SOL     OW 3531   7.175   7.009   8.560  0.0097 -0.1953  0.3612
  697SOL    HW1 3532   7.175   6.944   8.630 -1.3623  0.1844  0.7507
  697SOL    HW2 3533   7.189   7.093   8.604  2.9610 -0.2503 -0.2525
  698SOL     OW 3534   0.091   2.643   0.515 -0.2562 -0.2088  0.8453
  698SOL    HW1 3535   0.049   2.721   0.552 -0.3123 -0.1218  0.6037
  698SOL    HW2 3536   0.178   2.641   0.556 -0.1530  0.1347  0.6546
  699SOL     OW 3537   7.418   4.030   4.436  0.3085 -0.5311 -0.7736
  699SOL    HW1 3538   7.460   4.006   4.518 -1.2105 -0.8251 -0.0468
  699SOL    HW2 3539   7.467   4.105   4.404  0.4359  0.0926  0.8139
  700SOL     OW 3540   0.545   4.458   9.865  0.0407  0.1885  0.3897
  700SOL    HW1 3541   0.497   4.449   9.947 -1.0440  1.3460 -0.0845
  700SOL    HW2 3542   0.586   4.544   9.869  0.6287 -0.0650  0.0413
  701SOL     OW 3543   7.177   3.722   6.682  0.0784  0.5160 -0.0002
  701SOL    HW1 3544   7.215   3.809   6.698  0.6089  0.3135 -0.1558
  701SOL    HW2 3545   7.234   3.682   6.616  0.4967 -0.3820  0.8743
  702SOL     OW 3546   7.248   2.053   4.097  0.6743  0.1475  0.4288
  702SOL    HW1 3547   7.284   2.113   4.032 -0.9351  1.0775  0.3274
  702SOL    HW2 3548   7.210   2.110   4.164 -0.8298 -0.7273  0.3735
  703SOL     OW 3549   3.710   6.070   1.625 -0.0208  0.3135 -0.2655
  703SOL    HW1 3550   3.649   6.010   1.582 -0.7172 -0.1004  1.2288
  703SOL    HW2 3551   3.796   6.044   1.592 -0.3126 -1.4568  0.2585
  704SOL     OW 3552   0.930   0.665  11.582  0.3074 -0.4725  0.8549
  704SOL    HW1 3553   0.880   0.680  11.502  2.9728  1.0823 -0.6276
  704SOL    HW2 3554   0.896   0.582  11.616 -1.1857 -0.9725 -1.6354
  705SOL     OW 3555   1.295   2.500   7.505 -0.2533  0.2489 -0.2402
  705SOL    HW1 3556   1.352   2.437   7.461  0.6111  0.8959 -0.0711
  705SOL    HW2 3557   1.352   2.544   7.568 -1.5569 -1.0917  2.0515
  706SOL     OW 3558   6.564   6.601  11.040 -0.1125 -0.2346 -0.2688
  706SOL    HW1 3559   6.504   6.670  11.068  0.5830 -0.2739  1.4466
  706SOL    HW2 3560   6.509   6.541  10.989 -1.4076  0.0488  0.7199
  707SOL     OW 3561   4.457   1.769   5.960  0.0458 -0.2660 -0.1583
  707SOL    HW1 3562   4.431   1.813   6.040  1.3813 -0.4410  0.3872
  707SOL    HW2 3563   4.494   1.686   5.988  0.3189 -0.4337 -0.9645
  708SOL     OW 3564   2.547   5.191   0.463 -0.1798  0.1922 -0.4232
  708SOL    HW1 3565   2.492   5.263   0.431  0.4546  0.8672 -0.0163
  708SOL    HW2 3566   2.484   5.122   0.486 -1.3607  2.3022  3.7739
  709SOL     OW 3567   0.686   7.216  10.297  0.0346  0.1694 -0.1185
  709SOL    HW1 3568   0.691   7.304  10.258 -0.9776  0.5830  0.6527
  709SOL    HW2 3569   0.609   7.176  10.257 -1.1756  0.6989  1.5970
  710SOL     OW 3570   6.754   2.292   8.415  0.3720  0.5688 -0.0983
  710SOL    HW1 3571   6.824   2.231   8.396  0.5891  0.4484  1.0376
  710SOL    HW2 3572   6.727   2.272   8.505 -0.4180  1.2912 -0.1522
  711SOL     OW 3573   7.903   4.254   6.267 -0.0590 -0.0287 -0.2649
  711SOL    HW1 3574   7.989   4.284   6.296 -0.5357  0.0363  1.1623
  711SOL    HW2 3575   7.881   4.183   6.328  0.0114 -1.6963 -2.1011
  712SOL     OW 3576   7.951   4.371   7.719 -0.7714  0.0051 -0.1692
  712SOL    HW1 3577   7.919   4.371   7.809 -0.4432 -0.6312 -0.0503
  712SOL    HW2 3578   7.919   4.453   7.683  0.8012  1.2918  1.1414
  713SOL     OW 3579   0.603   7.302   6.897 -0.2346 -0.3960  0.5456
  713SOL    HW1 3580   0.574   7.303   6.806  3.6765  1.0302 -0.9134
  713SOL    HW2 3581   0.545   7.363   6.942 -2.2948 -1.1744 -0.9380
  714SOL     OW 3582   6.088   3.236  10.556 -0.1730  0.0059  0.2507
  714SOL    HW1 3583   6.178   3.216  10.531  0.5716  2.6352  0.5932
  714SOL    HW2 3584   6.041   3.243  10.473  0.5844  1.2732 -0.0992
  715SOL     OW 3585   6.655   0.996   7.363 -0.0355 -0.1034  0.0132
  715SOL    HW1 3586   6.603   0.928   7.405  0.4256 -0.5535 -0.1225
  715SOL    HW2 3587   6.738   0.952   7.342  1.0596  1.0553  1.7613
  716SOL     OW 3588   1.510   3.943   0.033  0.1030 -0.3683  0.0831
  716SOL    HW1 3589   1.525   3.908   0.121 -1.9356  0.7869  0.9669
  716SOL    HW2 3590   1.416   3.931   0.018 -0.3830  2.9054 -0.2817
  717SOL     OW 3591   0.851   1.923   1.931  0.0107 -0.4064 -0.4713
  717SOL    HW1 3592   0.783   1.984   1.902  0.8832 -0.1540 -2.1175
  717SOL    HW2 3593   0.812   1.876   2.004 -1.9212 -0.2673 -1.3697
  718SOL     OW 3594   1.023   5.342   5.730  0.5108 -0.2864 -0.8119
  718SOL    HW1 3595   1.105   5.347   5.779  0.5567  1.1964 -0.9870
  718SOL    HW2 3596   1.031   5.263   5.677  1.0409 -1.1821  0.5212
  719SOL     OW 3597   5.795   5.613   1.274  0.4078  0.1166  0.2096
  719SOL    HW1 3598   5.854   5.549   1.233 -0.1573 -1.2113  1.4021
  719SOL    HW2 3599   5.732   5.634   1.206 -1.0949 -2.7891  0.5555
  720SOL     OW 3600   4.887   2.092   0.911 -0.7858 -0.6601  0.1298
  720SOL    HW1 3601   4.841   2.065   0.990 -0.4770 -1.1694  0.1438
  720SOL    HW2 3602   4.818   2.127   0.854 -0.7429  1.7136  1.4031
  721SOL     OW 3603   2.922   2.435   0.843 -0.2952 -0.5352 -0.1729
  721SOL    HW1 3604   3.015   2.430   0.865 -0.1203  1.5366 -0.2299
  721SOL    HW2 3605   2.877   2.391   0.915  0.6490 -0.2301  0.6086
  722SOL     OW 3606   2.623   5.472   2.044 -0.0006  0.6243  0.2951
  722SOL    HW1 3607   2.716   5.450   2.051  0.2441  0.9114 -1.4928
  722SOL    HW2 3608   2.608   5.538   2.112  1.4362  1.5289 -0.2237
  723SOL     OW 3609   3.694   2.501   3.077  0.1305 -0.6469 -0.3619
  723SOL    HW1 3610   3.696   2.538   3.165  1.1212 -0.6993 -0.3571
  723SOL    HW2 3611   3.785   2.502   3.048 -0.1090 -1.1656 -1.1604
  724SOL     OW 3612   1.819   2.781   9.638 -0.1098 -0.4848  0.1876
  724SOL    HW1 3613   1.780   2.719   9.575 -0.8524 -0.0885  0.2382
  724SOL    HW2 3614   1.853   2.726   9.708  3.1510 -1.1719 -1.7425
  725SOL     OW 3615   5.184   4.847   8.151  0.2068 -0.1768 -0.4274
  725SOL    HW1 3616   5.100   4.893   8.148 -0.0545 -0.6489 -0.4709
  725SOL    HW2 3617   5.171   4.777   8.214  0.3803 -0.6159 -0.8731
  726SOL     OW 3618   6.888   6.019   1.630  0.3755 -0.1051  0.1611
  726SOL    HW1 3619   6.940   5.987   1.704 -0.9994 -1.0261  0.7758
  726SOL    HW2 3620   6.834   6.089   1.667 -1.7577 -1.8729  0.5894
  727SOL     OW 3621   1.673   6.655   8.383 -0.2020  0.0573  0.1688
  727SOL    HW1 3622   1.754   6.694   8.416  0.5083 -0.0050 -1.4485
  727SOL    HW2 3623   1.611   6.728   8.382  0.2185  0.4182  0.1271
  728SOL     OW 3624   5.348   2.377   1.360  0.1693  0.0981 -0.2601
  728SOL    HW1 3625   5.273   2.413   1.313 -3.0076 -2.6845  2.2482
  728SOL    HW2 3626   5.368   2.295   1.315 -0.7880 -0.9939  1.2506
  729SOL     OW 3627   6.007   0.188   4.087 -0.3175 -0.2985  0.4785
  729SOL    HW1 3628   5.942   0.125   4.054 -2.2852  2.2475 -0.9154
  729SOL    HW2 3629   6.074   0.191   4.018 -1.4999  0.8641 -0.6762
  730SOL     OW 3630   5.453   4.779   6.278  0.2493  0.4276 -0.3515
  730SOL    HW1 3631   5.537   4.761   6.237 -0.4268 -1.5897 -0.9633
  730SOL    HW2 3632   5.412   4.845   6.221  0.4372 -0.3568 -1.4226
  731SOL     OW 3633   1.499   6.555   1.238 -0.0180  0.1062 -0.6198
  731SOL    HW1 3634   1.517   6.535   1.146  1.5333 -0.1276 -0.3046
  731SOL    HW2 3635   1.536   6.642   1.251  0.1568 -0.0407 -0.1201
  732SOL     OW 3636   0.160   1.933  10.401  1.0457 -1.0997 -0.1468
  732SOL    HW1 3637   0.224   1.989  10.446 -0.3611  0.0030  0.5708
  732SOL    HW2 3638   0.112   1.890  10.472  1.9864 -3.1491 -0.6842
  733SOL     OW 3639   0.955   1.739   6.746 -0.1647  0.3815 -0.2361
  733SOL    HW1 3640   1.024   1.728   6.680 -0.5400  0.0250 -0.5825
  733SOL    HW2 3641   0.961   1.661   6.801  0.2144  0.7284  0.2208
  734SOL     OW 3642   2.711   6.927   7.892 -0.2006 -0.0237 -0.2294
  734SOL    HW1 3643   2.748   7.014   7.875  1.4421 -0.7623 -0.6178
  734SOL    HW2 3644   2.761   6.894   7.967 -0.8323 -0.6414 -0.0673
  735SOL     OW 3645   5.295   7.787   2.893 -0.1740 -0.2131 -0.1281
  735SOL    HW1 3646   5.263   7.743   2.814  0.0760 -3.8237  1.5737
  735SOL    HW2 3647   5.382   7.819   2.868  0.0651 -1.6149 -1.2912
  736SOL     OW 3648   3.454   6.605   5.328  1.2279  0.0928 -0.6044
  736SOL    HW1 3649   3.446   6.592   5.234  0.3830 -1.6237 -0.3432
  736SOL    HW2 3650   3.547   6.593   5.347  1.2458 -0.5654 -1.0937
  737SOL     OW 3651   7.629   7.425   0.743 -0.4625 -0.6766 -0.1985
  737SOL    HW1 3652   7.668   7.494   0.797  0.7257 -1.0915 -0.5053
  737SOL    HW2 3653   7.588   7.472   0.670  0.1807 -0.2791 -0.3088
  738SOL     OW 3654   1.057   6.896   2.053  0.4233  0.4246  0.2386
  738SOL    HW1 3655   1.139   6.873   2.010  0.6754  1.4185  0.1524
  738SOL    HW2 3656   0.991   6.842   2.011  0.7894  0.8040 -0.8575
  739SOL     OW 3657   1.882   2.680   2.237  0.6993 -0.0721 -0.2432
  739SOL    HW1 3658   1.844   2.641   2.159 -1.0276 -0.1175  0.5729
  739SOL    HW2 3659   1.955   2.733   2.204  1.8568 -2.3347 -1.5673
  740SOL     OW 3660   3.773   6.180  11.186  0.3782 -0.4132  0.0907
  740SOL    HW1 3661   3.754   6.265  11.147 -0.0184 -0.3627  0.3865
  740SOL    HW2 3662   3.863   6.188  11.218  0.3063 -0.0680  0.2107
  741SOL     OW 3663   1.393   4.883   1.824 -0.2693 -0.5474 -0.1014
  741SOL    HW1 3664   1.458   4.815   1.806  1.6368  0.3266  2.6815
  741SOL    HW2 3665   1.356   4.858   1.909 -1.1677  0.7222 -0.0958
  742SOL     OW 3666   1.139   5.784   3.640 -0.6193  0.2607  0.4192
  742SOL    HW1 3667   1.224   5.802   3.679  0.5386 -1.2879 -1.2148
  742SOL    HW2 3668   1.159   5.757   3.550 -2.8255 -0.2150  0.0124
  743SOL     OW 3669   4.332   7.575   5.216 -0.7134  0.1398  0.2249
  743SOL    HW1 3670   4.329   7.490   5.172  0.6075  0.0919  0.1779
  743SOL    HW2 3671   4.258   7.623   5.181 -0.7012 -0.5248 -0.7395
  744SOL     OW 3672   4.178   7.565   0.549  0.3058 -0.3026 -0.3270
  744SOL    HW1 3673   4.143   7.652   0.568  0.3015 -0.4894  0.5859
  744SOL    HW2 3674   4.107   7.505   0.570  0.3658 -0.5379 -0.7936
  745SOL     OW 3675   0.996   6.255  10.570  0.2959 -0.2803  0.4351
  745SOL    HW1 3676   0.961   6.259  10.659 -0.6014  0.4561  0.0630
  745SOL    HW2 3677   1.074   6.200  10.577 -1.1235 -2.2770  1.2052
  746SOL     OW 3678   0.224   1.475   9.215  1.1290 -0.8580  0.2894
  746SOL    HW1 3679   0.220   1.452   9.308  1.3146  0.6294  0.6860
  746SOL    HW2 3680   0.317   1.489   9.198  1.1204 -1.3639 -0.1858
  747SOL     OW 3681   0.310   3.261   1.437  0.0073 -0.5072  0.8409
  747SOL    HW1 3682   0.260   3.343   1.436 -0.1431 -0.6090  0.0090
  747SOL    HW2 3683   0.399   3.288   1.461  0.0710 -0.0415  0.0919
  748SOL     OW 3684   3.579   4.204  10.206  0.5962 -0.0649 -0.2256
  748SOL    HW1 3685   3.485   4.189  10.194  0.9949 -2.1203 -1.3628
  748SOL    HW2 3686   3.585   4.281  10.262 -1.7528  0.3955 -0.5264
  749SOL     OW 3687   4.929   3.293   4.047 -0.4724 -0.5620 -0.1309
  749SOL    HW1 3688   5.013   3.338   4.039 -1.0832  0.4298 -1.3355
  749SOL    HW2 3689   4.923   3.269   4.139 -0.1277  1.8737  0.5941
  750SOL     OW 3690   1.891   3.652  10.713  0.1032  0.0188  0.0487
  750SOL    HW1 3691   1.843   3.601  10.778  1.2075 -1.0597  0.0567
  750SOL    HW2 3692   1.983   3.642  10.739  0.5571 -0.3725 -1.6227
  751SOL     OW 3693   2.985   3.297  11.024  0.2564 -0.1497  0.0471
  751SOL    HW1 3694   2.943   3.234  11.082 -0.0374 -0.5346 -0.5737
  751SOL    HW2 3695   3.041   3.350  11.082  0.3733 -0.8644  0.5958
  752SOL     OW 3696   1.084   3.349   7.057  0.2771  0.4928 -0.1890
  752SOL    HW1 3697   1.033   3.275   7.091  1.3109  0.8415  2.3898
  752SOL    HW2 3698   1.037   3.426   7.088 -0.0490  0.9404 -1.7079
  753SOL     OW 3699   7.976   2.176   0.396  0.2418 -0.6224  0.0376
  753SOL    HW1 3700   7.937   2.102   0.443 -1.1089  0.5706  0.9147
  753SOL    HW2 3701   7.989   2.242   0.464 -3.4939  1.8653 -1.3339
  754SOL     OW 3702   3.942   3.547  10.495 -0.4867  0.1131  0.2367
  754SOL    HW1 3703   3.955   3.641  10.510  0.0764  0.0195  0.3391
  754SOL    HW2 3704   3.911   3.513  10.579 -2.3368  0.4877 -0.2382
  755SOL     OW 3705   2.818   4.234   8.198 -0.0270 -0.0995 -0.4683
  755SOL    HW1 3706   2.826   4.141   8.216 -0.9218 -0.3862 -1.4314
  755SOL    HW2 3707   2.860   4.277   8.272 -1.6343 -1.2122  1.1716
  756SOL     OW 3708   3.526   0.816   9.593 -0.5784  0.1276 -0.2250
  756SOL    HW1 3709   3.480   0.863   9.662  0.9041  2.0573 -0.4734
  756SOL    HW2 3710   3.618   0.818   9.619 -0.3602 -1.9871 -0.6711
  757SOL     OW 3711   2.458   6.398   8.101  0.2049  0.1968 -0.1458
  757SOL    HW1 3712   2.498   6.481   8.077  1.2207 -0.2924 -0.2168
  757SOL    HW2 3713   2.527   6.351   8.148 -0.1076 -0.8912 -0.7383
  758SOL     OW 3714   0.897   6.693   5.239  0.3086 -0.0684  0.0524
  758SOL    HW1 3715   0.882   6.753   5.167  0.5569 -0.5486 -0.4059
  758SOL    HW2 3716   0.981   6.652   5.220  0.3741 -0.2079  0.6103
  759SOL     OW 3717   2.237   6.193  10.074 -0.3167  0.1009 -0.0546
  759SOL    HW1 3718   2.178   6.122  10.049  0.2638 -0.6471  0.6521
  759SOL    HW2 3719   2.217   6.264  10.013  1.2548 -1.7241 -2.8671
  760SOL     OW 3720   5.702   0.759  10.545  0.0445  0.5406 -0.0402
  760SOL    HW1 3721   5.627   0.711  10.579 -0.0302 -0.3445 -1.3749
  760SOL    HW2 3722   5.668   0.846  10.524 -0.8939 -0.1696 -1.5985
  761SOL     OW 3723   1.162   7.117   1.701  0.3685 -0.0025  0.2529
  761SOL    HW1 3724   1.221   7.161   1.761  0.1567  0.1848  0.3259
  761SOL    HW2 3725   1.212   7.042   1.668  0.1871 -0.6184  1.3258
  762SOL     OW 3726   1.518   6.874   7.228 -0.2212  0.5792  0.4947
  762SOL    HW1 3727   1.592   6.929   7.254 -0.8542  0.9416  1.6417
  762SOL    HW2 3728   1.558   6.793   7.196  0.7285  1.6997 -1.2757
  763SOL     OW 3729   6.208   4.215   4.296 -0.1488 -0.2040  0.0463
  763SOL    HW1 3730   6.278   4.215   4.361  0.5410  2.3146 -0.5662
  763SOL    HW2 3731   6.128   4.204   4.346  0.4713  0.2725  1.1793
  764SOL     OW 3732   7.394   7.902   8.601  0.0566 -0.2055  0.2114
  764SOL    HW1 3733   7.383   7.993   8.629  1.4890  0.4875 -1.2865
  764SOL    HW2 3734   7.446   7.908   8.520 -2.8566 -2.0876 -2.0041
  765SOL     OW 3735   5.705   1.676   1.665 -0.2293 -0.0933 -0.2450
  765SOL    HW1 3736   5.763   1.746   1.635 -1.6667  0.7240 -1.2869
  765SOL    HW2 3737   5.728   1.601   1.610 -0.3229  0.3067 -0.8419
  766SOL     OW 3738   7.745   4.946   8.865 -0.6634  0.2496  0.3255
  766SOL    HW1 3739   7.685   4.987   8.927 -1.3174 -0.4152  0.1456
  766SOL    HW2 3740   7.832   4.975   8.892 -1.1217  2.1567 -0.0826
  767SOL     OW 3741   6.893   6.346   6.998  0.4146  0.0639  0.8483
  767SOL    HW1 3742   6.810   6.339   7.046  0.2119 -0.7244  0.4038
  767SOL    HW2 3743   6.916   6.255   6.977  0.2267  0.4003 -0.9801
  768SOL     OW 3744   7.473   1.292   5.834 -0.0791 -0.5778 -0.0183
  768SOL    HW1 3745   7.539   1.322   5.772 -0.6553  0.6343 -0.0743
  768SOL    HW2 3746   7.518   1.296   5.919  0.3417 -1.0954 -0.2109
  769SOL     OW 3747   1.834   1.816   0.509 -0.2757  0.7934  0.4544
  769SOL    HW1 3748   1.819   1.722   0.506 -0.4813  0.6722  2.9470
  769SOL    HW2 3749   1.925   1.827   0.482 -0.4752 -0.0176 -0.6069
  770SOL     OW 3750   4.406   2.607   7.181  0.1036  0.0989  0.0938
  770SOL    HW1 3751   4.345   2.680   7.176 -0.4006 -0.4124 -2.4243
  770SOL    HW2 3752   4.477   2.630   7.121  0.5482 -0.9428  0.1946
  771SOL     OW 3753   7.897   4.153   2.303 -0.1026  0.0409 -0.8969
  771SOL    HW1 3754   7.864   4.069   2.336 -0.7356  0.2027 -1.0936
  771SOL    HW2 3755   7.955   4.129   2.230  0.7179 -0.2773 -0.1487
  772SOL     OW 3756   7.116   4.937   6.353 -0.0038 -0.5895 -0.6733
  772SOL    HW1 3757   7.167   5.012   6.322 -0.1105  0.2485  1.0664
  772SOL    HW2 3758   7.095   4.888   6.274  0.5806  0.9038 -1.7952
  773SOL     OW 3759   6.341   1.644   8.668  0.4732  0.2465  0.1305
  773SOL    HW1 3760   6.316   1.554   8.690  0.9482  0.1686  0.3533
  773SOL    HW2 3761   6.313   1.656   8.578 -0.9171  0.3497  0.5455
  774SOL     OW 3762   0.554   0.994   3.389  0.2248  0.1549 -0.6627
  774SOL    HW1 3763   0.642   1.007   3.424  0.4199 -1.1168 -0.6334
  774SOL    HW2 3764   0.538   1.071   3.335  1.8706 -0.1952 -1.7205
  775SOL     OW 3765   0.946   2.710  10.717 -0.3677  0.0154 -0.2023
  775SOL    HW1 3766   0.919   2.749  10.634 -0.1376  1.1108  0.2330
  775SOL    HW2 3767   0.867   2.712  10.771  0.0223  1.3158  0.3506
  776SOL     OW 3768   5.848   6.803   9.002 -0.3353  0.1480 -0.4363
  776SOL    HW1 3769   5.872   6.782   8.912  0.2647 -0.5889 -0.1133
  776SOL    HW2 3770   5.925   6.848   9.038  1.1051 -3.0985  0.9084
  777SOL     OW 3771   7.015   1.862   8.332  0.0633 -0.4658  0.0828
  777SOL    HW1 3772   7.002   1.957   8.340 -2.4953 -0.7897  0.5587
  777SOL    HW2 3773   7.034   1.833   8.421  2.5885 -0.2624 -0.3092
  778SOL     OW 3774   4.636   5.393   7.739  0.0028 -0.3204 -0.2803
  778SOL    HW1 3775   4.645   5.309   7.784  1.5870 -0.2439 -0.4136
  778SOL    HW2 3776   4.718   5.439   7.756  0.3454  0.0428 -2.5790
  779SOL     OW 3777   6.496   2.025   9.631  0.0014 -0.1924  0.6959
  779SOL    HW1 3778   6.516   1.948   9.684  1.6633  0.3936  0.9876
  779SOL    HW2 3779   6.421   1.999   9.578  0.9738 -2.2875  0.2342
  780SOL     OW 3780   2.702   3.752  10.085 -0.0050  0.4171 -0.1715
  780SOL    HW1 3781   2.710   3.801  10.167  0.6584  0.4900 -0.2752
  780SOL    HW2 3782   2.746   3.669  10.102 -0.4313  0.1745 -0.2498
  781SOL     OW 3783   6.717   4.403   2.227 -0.6487  0.1092  0.2974
  781SOL    HW1 3784   6.745   4.337   2.164  0.7133  0.4944  0.4536
  781SOL    HW2 3785   6.636   4.438   2.192  1.1875  1.9629 -2.5308
  782SOL     OW 3786   0.839   2.318   2.165 -0.6597  0.6750 -0.0465
  782SOL    HW1 3787   0.752   2.277   2.165  0.1986 -1.2333 -0.4643
  782SOL    HW2 3788   0.894   2.257   2.215  0.1239  2.6695  1.6942
  783SOL     OW 3789   6.245   1.379   8.722  0.0982  0.3260 -0.6458
  783SOL    HW1 3790   6.270   1.304   8.669 -1.7959 -0.3167 -0.7101
  783SOL    HW2 3791   6.150   1.385   8.712 -0.0410  1.5137  0.9442
  784SOL     OW 3792   5.364   6.986  10.048 -0.3678 -0.1761  0.3485
  784SOL    HW1 3793   5.300   7.020  10.110 -0.9135 -0.0164 -0.2861
  784SOL    HW2 3794   5.368   6.892  10.067 -2.1257 -0.5279 -0.7306
  785SOL     OW 3795   0.035   7.613   1.664  0.0049 -0.1693  0.0593
  785SOL    HW1 3796  -0.026   7.634   1.593 -1.3287 -2.5654  0.3936
  785SOL    HW2 3797   0.032   7.690   1.721 -0.9998  0.6670 -1.0475
  786SOL     OW 3798   7.029   1.301   8.779  0.4283 -0.5795  0.0253
  786SOL    HW1 3799   7.000   1.385   8.816  2.0095  0.6646 -1.4133
  786SOL    HW2 3800   7.045   1.246   8.856 -2.0302 -0.1048  0.9595
  787SOL     OW 3801   1.716   1.644  11.161 -0.0449 -0.1366 -0.5045
  787SOL    HW1 3802   1.771   1.719  11.139  1.7452 -1.1711  0.2377
  787SOL    HW2 3803   1.772   1.587  11.213 -2.3966 -0.3370  2.0982
  788SOL     OW 3804   4.057   0.125   5.594 -0.4806 -0.1468 -0.3005
  788SOL    HW1 3805   4.002   0.052   5.625  0.5770  0.1359  2.4526
  788SOL    HW2 3806   4.132   0.082   5.553 -0.1330 -0.6202  0.8078
  789SOL     OW 3807   1.033   0.151   2.563  0.3813  0.1765 -0.0636
  789SOL    HW1 3808   0.969   0.192   2.621  0.2523 -0.3975  0.2104
  789SOL    HW2 3809   1.110   0.138   2.618  0.7966  0.9950 -0.4291
  790SOL     OW 3810   2.943   3.243   9.564 -0.3800 -0.2501 -0.3756
  790SOL    HW1 3811   2.938   3.201   9.649 -0.9238 -1.1543 -0.8414
  790SOL    HW2 3812   2.947   3.171   9.501 -2.6354  0.3078 -1.2798
  791SOL     OW 3813   0.899   2.548  10.036 -0.4564  0.6349 -0.1764
  791SOL    HW1 3814   0.947   2.534  10.117 -2.5185 -1.6692  0.7666
  791SOL    HW2 3815   0.967   2.556   9.969  1.2722  0.0477  1.4203
  792SOL     OW 3816   2.899   4.484   9.018 -0.1218  0.2631 -0.2862
  792SOL    HW1 3817   2.903   4.579   9.021 -0.3218  0.3042 -1.0491
  792SOL    HW2 3818   2.966   4.455   9.080  1.0706  0.8994 -1.2354
  793SOL     OW 3819   4.370   5.696  11.422 -0.0317 -0.1312 -0.1735
  793SOL    HW1 3820   4.292   5.653  11.457 -0.0147  0.5371  0.7006
  793SOL    HW2 3821   4.443   5.656  11.469  0.0275  0.4422  0.2279
  794SOL     OW 3822   0.913   2.148   8.728 -0.2868 -0.4420  0.4031
  794SOL    HW1 3823   0.842   2.094   8.763  0.8774 -1.4302  1.3192
  794SOL    HW2 3824   0.985   2.087   8.715  0.9954  0.8228  1.2437
  795SOL     OW 3825   0.656   4.298   5.180 -0.1003  0.3721  0.2146
  795SOL    HW1 3826   0.702   4.214   5.183  1.9666  1.3297 -1.5040
  795SOL    HW2 3827   0.706   4.354   5.240  1.4254  1.5402 -1.9690
  796SOL     OW 3828   7.837   6.309  12.169 -0.0523 -0.5284  0.2399
  796SOL    HW1 3829   7.875   6.248  12.105 -0.8726 -0.0149 -0.7517
  796SOL    HW2 3830   7.912   6.358  12.202  0.5101 -1.4817  0.4322
  797SOL     OW 3831   4.475   1.872   8.388 -0.5460  0.3312 -0.0899
  797SOL    HW1 3832   4.472   1.941   8.321  0.4401  1.2345  0.7640
  797SOL    HW2 3833   4.481   1.919   8.471  0.0617 -0.7941  0.5243
  798SOL     OW 3834   4.886   5.472   8.169 -0.1459  0.0492  0.0869
  798SOL    HW1 3835   4.942   5.465   8.092 -1.0485 -0.3341 -0.5495
  798SOL    HW2 3836   4.936   5.429   8.238  0.1996 -0.6161 -0.5588
  799SOL     OW 3837   6.316   7.227   4.375 -0.0386 -0.1937  0.0559
  799SOL    HW1 3838   6.347   7.317   4.386 -0.7986  0.3813 -2.0486
  799SOL    HW2 3839   6.396   7.175   4.370  0.5097  0.7303 -1.3010
  800SOL     OW 3840   4.612   6.434   0.641 -0.3691  0.7431  0.2454
  800SOL    HW1 3841   4.596   6.486   0.719 -0.0470  1.5936 -0.2412
  800SOL    HW2 3842   4.625   6.499   0.571  0.7087  0.0224 -0.2450
  801SOL     OW 3843   0.434   4.861   9.504  0.3543  0.1523  0.0216
  801SOL    HW1 3844   0.343   4.887   9.488  0.3326  0.3980  0.5170
  801SOL    HW2 3845   0.486   4.919   9.449  0.2395  0.3686  0.1434
  802SOL     OW 3846   7.335   0.461   9.257  0.1730  0.5552  0.0290
  802SOL    HW1 3847   7.246   0.495   9.248 -0.0407 -0.3738 -1.6839
  802SOL    HW2 3848   7.328   0.368   9.234  1.5587  0.4126  0.0701
  803SOL     OW 3849   1.002   4.620   5.098  0.1410 -0.6949 -0.2269
  803SOL    HW1 3850   0.961   4.694   5.053 -0.2843  0.6459  2.1591
  803SOL    HW2 3851   1.006   4.551   5.032 -1.3494  0.7708 -1.9803
  804SOL     OW 3852   1.050   2.458  12.122 -0.2118  0.2878  0.2731
  804SOL    HW1 3853   1.019   2.495  12.204 -0.4363 -0.2854  0.4476
  804SOL    HW2 3854   1.144   2.478  12.120 -0.7832  3.3991 -0.9726
  805SOL     OW 3855   5.514   6.683   4.555 -0.0256 -0.2640 -0.3658
  805SOL    HW1 3856   5.420   6.663   4.556  0.0856 -0.7599  0.1986
  805SOL    HW2 3857   5.518   6.778   4.539 -0.5898 -0.4112 -1.4676
  806SOL     OW 3858   1.128   0.746   9.065  0.3540  0.1120 -0.3199
  806SOL    HW1 3859   1.095   0.686   9.131  2.7270 -0.0997  0.7817
  806SOL    HW2 3860   1.104   0.833   9.097 -1.2958 -0.1089 -0.8705
  807SOL     OW 3861   0.489   0.494   5.047  0.0588  0.3592  0.4162
  807SOL    HW1 3862   0.563   0.501   5.107  1.3627 -0.6608 -1.0085
  807SOL    HW2 3863   0.512   0.552   4.974  0.6640 -1.7323 -1.1666
  808SOL     OW 3864   0.328   0.978  11.779 -0.2101 -0.2290  0.2135
  808SOL    HW1 3865   0.270   0.990  11.854  0.3408  0.8443  0.4915
  808SOL    HW2 3866   0.293   1.036  11.712 -1.4989 -2.1711 -0.8871
  809SOL     OW 3867   1.571   5.868   9.676  0.1602  0.4264 -0.2343
  809SOL    HW1 3868   1.518   5.800   9.637 -0.5164  1.6793 -1.5850
  809SOL    HW2 3869   1.543   5.949   9.633 -0.2992  1.8546  2.4718
  810SOL     OW 3870   0.576   0.795   7.424  0.0192  0.2834 -0.1945
  810SOL    HW1 3871   0.572   0.786   7.519 -0.0477 -0.6016 -0.2723
  810SOL    HW2 3872   0.573   0.705   7.391 -0.3981  0.6039 -1.0550
  811SOL     OW 3873   7.324   6.831   9.261  0.0521  0.0791 -0.2545
  811SOL    HW1 3874   7.329   6.817   9.166  3.2152 -0.4497 -0.0941
  811SOL    HW2 3875   7.308   6.925   9.270  0.5583  0.2824 -1.3093
  812SOL     OW 3876   3.036   3.229   8.723  1.1756 -0.5584  0.3790
  812SOL    HW1 3877   3.123   3.195   8.705 -0.0441 -2.2139 -3.3696
  812SOL    HW2 3878   3.010   3.272   8.642 -2.0008 -1.3371  0.8518
  813SOL     OW 3879   0.284   1.389   2.702 -0.0523  0.6338 -0.0850
  813SOL    HW1 3880   0.193   1.360   2.697  0.3760 -1.1043  1.2539
  813SOL    HW2 3881   0.332   1.313   2.737  1.3937  2.4725  2.2741
  814SOL     OW 3882   5.302   6.155   3.826 -0.3514  0.4790  0.2633
  814SOL    HW1 3883   5.355   6.229   3.855 -0.2536  0.2399  0.7013
  814SOL    HW2 3884   5.363   6.081   3.827 -0.9025  0.0105  1.6499
  815SOL     OW 3885   2.778   0.822  11.780  0.8681 -0.1793 -0.1677
  815SOL    HW1 3886   2.772   0.917  11.778 -0.4894 -0.2542 -0.9458
  815SOL    HW2 3887   2.824   0.802  11.861  0.7020  1.1179  0.2603
  816SOL     OW 3888   2.136   3.979   3.840 -0.5729  0.2730  0.1681
  816SOL    HW1 3889   2.223   3.968   3.878  0.8066 -1.6783 -3.1692
  816SOL    HW2 3890   2.148   4.041   3.768 -2.5522  1.9376  1.1620
  817SOL     OW 3891   3.807   7.781   6.921 -0.3271 -0.0661  0.2594
  817SOL    HW1 3892   3.870   7.788   6.993 -1.2314  0.6107  1.0031
  817SOL    HW2 3893   3.861   7.775   6.842  0.7138 -1.9432  1.0512
  818SOL     OW 3894   3.595   1.519   9.379  0.7940 -0.1068  0.5280
  818SOL    HW1 3895   3.565   1.466   9.305  1.3416 -0.3745  0.4930
  818SOL    HW2 3896   3.686   1.492   9.393  0.2281 -1.1873  2.3251
  819SOL     OW 3897   3.968   6.132   3.185  0.1109 -0.2950  0.1809
  819SOL    HW1 3898   3.920   6.137   3.268  1.3360  0.3892  0.8770
  819SOL    HW2 3899   4.048   6.085   3.207  0.4793 -0.0583 -0.6078
  820SOL     OW 3900   3.045   1.958  11.437  0.1990  0.0511  0.1180
  820SOL    HW1 3901   3.013   1.977  11.525 -0.0602 -1.4622  0.3642
  820SOL    HW2 3902   3.064   2.045  11.400  0.5427  0.7033  1.7290
  821SOL     OW 3903   5.621   3.571   3.733  0.4626 -0.4473  0.2790
  821SOL    HW1 3904   5.606   3.558   3.639 -0.4365  1.5808  0.0768
  821SOL    HW2 3905   5.574   3.499   3.775 -0.3332 -0.5821 -0.7961
  822SOL     OW 3906   1.527   6.135   6.916 -0.3720 -0.0289  0.1492
  822SOL    HW1 3907   1.518   6.040   6.930 -1.5676  0.1489  0.6987
  822SOL    HW2 3908   1.613   6.145   6.875  0.7028 -1.1640  1.9887
  823SOL     OW 3909   2.489   1.394   9.385  0.5042 -0.3436  0.0366
  823SOL    HW1 3910   2.461   1.318   9.436  0.9541  0.1592  1.0820
  823SOL    HW2 3911   2.513   1.459   9.451 -0.8724  1.0980 -0.8215
  824SOL     OW 3912   6.177   5.741   8.235  0.6061  0.0009 -0.0450
  824SOL    HW1 3913   6.092   5.696   8.230  1.1864 -1.0199 -1.1656
  824SOL    HW2 3914   6.215   5.731   8.147  2.5840 -0.9703  0.8599
  825SOL     OW 3915   2.989   5.059   5.890  0.2043 -0.3205 -0.3490
  825SOL    HW1 3916   3.073   5.064   5.843 -0.9186  1.8874 -2.3442
  825SOL    HW2 3917   2.973   5.149   5.919 -0.7018 -1.0400  1.5263
  826SOL     OW 3918   1.679   2.043   4.618 -0.4873  0.2506 -0.8608
  826SOL    HW1 3919   1.741   2.096   4.568 -1.4265  1.8330 -0.4094
  826SOL    HW2 3920   1.729   1.965   4.643  1.0898  1.1327 -1.1403
  827SOL     OW 3921   5.207   4.464   2.681 -0.3337  0.8868  0.1932
  827SOL    HW1 3922   5.211   4.394   2.747  1.2250  1.3438  0.6190
  827SOL    HW2 3923   5.130   4.515   2.705  0.3772  1.2419  1.9152
  828SOL     OW 3924   3.602   1.492   1.606  1.0920 -0.0251  0.7598
  828SOL    HW1 3925   3.679   1.549   1.608  0.6916  0.5763 -0.0828
  828SOL    HW2 3926   3.531   1.547   1.639  0.7142 -0.0463 -0.0003
  829SOL     OW 3927   6.389   3.610  11.421  0.0794 -0.4765  0.4536
  829SOL    HW1 3928   6.482   3.590  11.430 -0.3009 -1.8776  1.7001
  829SOL    HW2 3929   6.350   3.582  11.504 -1.3839  0.5451  0.1572
  830SOL     OW 3930   6.434   6.684   1.992 -0.0434  0.4829  0.1789
  830SOL    HW1 3931   6.394   6.686   2.079 -1.5363  0.0169 -0.4586
  830SOL    HW2 3932   6.495   6.611   1.994 -0.3520  0.2375  0.7280
  831SOL     OW 3933   3.567   2.973  11.910  0.1818 -0.1420 -0.0961
  831SOL    HW1 3934   3.611   2.894  11.878 -1.5147 -1.0125 -0.3820
  831SOL    HW2 3935   3.490   2.982  11.854  0.3571  1.7651 -0.1008
  832SOL     OW 3936   6.554   5.225   4.366 -0.0907  0.2875  0.2639
  832SOL    HW1 3937   6.495   5.294   4.396 -0.6597 -1.2784  3.0489
  832SOL    HW2 3938   6.554   5.160   4.436  0.9822 -2.2407 -1.8910
  833SOL     OW 3939   0.464   3.587   1.220  0.5428 -0.0713  0.0740
  833SOL    HW1 3940   0.554   3.561   1.239  0.3621  0.1325  1.2674
  833SOL    HW2 3941   0.415   3.565   1.299 -0.3812  0.2027 -0.4031
  834SOL     OW 3942   7.805   1.173   6.911  0.6214  0.4079 -0.3362
  834SOL    HW1 3943   7.716   1.148   6.936  0.7106  0.1725 -0.2508
  834SOL    HW2 3944   7.793   1.235   6.839  0.3791  0.7162 -0.0318
  835SOL     OW 3945   5.542   4.351   6.125 -0.4689  0.0078 -0.4256
  835SOL    HW1 3946   5.541   4.438   6.086 -1.1748 -0.0479 -0.5603
  835SOL    HW2 3947   5.607   4.302   6.075  1.5436  1.0377  1.0201
  836SOL     OW 3948   0.730   4.608   1.536 -0.3542 -0.1816 -0.4915
  836SOL    HW1 3949   0.766   4.637   1.452 -0.8801 -0.8648 -0.9715
  836SOL    HW2 3950   0.805   4.607   1.595  0.2289 -0.6071 -1.2086
  837SOL     OW 3951   1.717   2.393   9.307 -0.5016 -0.0447 -0.0910
  837SOL    HW1 3952   1.682   2.411   9.394 -2.3565 -0.7604 -0.6419
  837SOL    HW2 3953   1.688   2.467   9.253 -0.4136 -0.2055 -0.3636
  838SOL     OW 3954   1.260   4.993   5.431 -0.5995 -0.2961 -0.1082
  838SOL    HW1 3955   1.307   4.965   5.353 -0.1289  0.9802 -0.2929
  838SOL    HW2 3956   1.198   5.060   5.401 -3.2731 -2.5328 -0.0374
  839SOL     OW 3957   2.039   7.452   2.064 -0.2046 -0.1643 -0.2978
  839SOL    HW1 3958   1.958   7.497   2.040  0.1333  0.9568  0.5719
  839SOL    HW2 3959   2.102   7.479   1.997 -0.1832  0.0973 -0.1718
  840SOL     OW 3960   6.764   2.581   8.435  0.0220  0.1082  0.3700
  840SOL    HW1 3961   6.779   2.606   8.527  0.2984 -1.1597  0.6911
  840SOL    HW2 3962   6.788   2.488   8.432 -0.4086  0.0294 -0.8944
  841SOL     OW 3963   6.324   2.358   1.864 -0.0641 -0.2948 -0.1266
  841SOL    HW1 3964   6.254   2.309   1.822  0.5362 -1.5070  0.2445
  841SOL    HW2 3965   6.322   2.330   1.955  1.9509 -1.6748 -0.4349
  842SOL     OW 3966   6.137   6.557   1.798 -0.8205  0.7677 -0.3274
  842SOL    HW1 3967   6.077   6.501   1.749 -0.3682 -0.5250  0.5380
  842SOL    HW2 3968   6.080   6.612   1.852 -1.2604 -0.6201  0.6769
  843SOL     OW 3969   2.783   7.256   8.915  0.1109  0.5145 -0.1417
  843SOL    HW1 3970   2.834   7.337   8.911 -0.8510  1.1410 -0.1915
  843SOL    HW2 3971   2.848   7.186   8.915  0.9190  1.2213 -1.9234
  844SOL     OW 3972   3.436   3.453  10.786 -0.2731 -0.0849  0.1385
  844SOL    HW1 3973   3.413   3.488  10.699 -0.7591 -0.5463  0.0732
  844SOL    HW2 3974   3.445   3.530  10.841 -1.6893  0.1532  0.0845
  845SOL     OW 3975   4.739   3.693   5.612  0.3904 -0.1642 -0.2509
  845SOL    HW1 3976   4.781   3.694   5.698  1.2431  0.8043 -0.6642
  845SOL    HW2 3977   4.646   3.706   5.630  0.3684 -1.3224  0.6073
  846SOL     OW 3978   0.337   7.476  10.812 -0.1343  0.3972  0.0040
  846SOL    HW1 3979   0.321   7.546  10.749 -1.3103  0.0065 -0.1513
  846SOL    HW2 3980   0.328   7.395  10.761  0.1322  0.1035  0.4106
  847SOL     OW 3981   2.668   1.515   5.750  0.4454  0.0117  0.0091
  847SOL    HW1 3982   2.590   1.570   5.743 -0.1061 -0.8189 -0.6368
  847SOL    HW2 3983   2.741   1.577   5.755 -0.2630  0.8049  0.8809
  848SOL     OW 3984   2.107   2.215  11.329 -0.3076 -0.0894 -0.4846
  848SOL    HW1 3985   2.086   2.171  11.246  0.0583  2.8127 -2.2491
  848SOL    HW2 3986   2.033   2.273  11.345 -0.2859 -0.4769  1.1876
  849SOL     OW 3987   5.697   5.359   9.032  0.4967 -0.0219  0.7148
  849SOL    HW1 3988   5.673   5.402   9.114  0.4090  1.0552  0.1474
  849SOL    HW2 3989   5.793   5.360   9.032  0.4966  0.7100  0.4480
  850SOL     OW 3990   6.341   2.082   1.003 -0.4787  0.4488 -0.4582
  850SOL    HW1 3991   6.299   2.010   0.956 -1.8821  1.5547 -0.9888
  850SOL    HW2 3992   6.362   2.146   0.935 -1.5402  1.6075  0.2631
  851SOL     OW 3993   0.591   0.191   7.624  0.0081  0.0670 -0.2634
  851SOL    HW1 3994   0.636   0.276   7.628  0.1817  0.0791 -1.6960
  851SOL    HW2 3995   0.544   0.185   7.707  0.1247  1.4907 -0.0564
  852SOL     OW 3996   1.910   1.777  10.691 -0.3757 -0.7132 -0.3407
  852SOL    HW1 3997   1.872   1.838  10.753 -1.0607 -0.8736 -0.6020
  852SOL    HW2 3998   1.991   1.819  10.663  0.1314 -0.7948  0.9190
  853SOL     OW 3999   3.589   2.681   2.102  0.6754  0.3611  0.1320
  853SOL    HW1 4000   3.579   2.628   2.181  1.8176  1.2751  0.9319
  853SOL    HW2 4001   3.589   2.618   2.030 -1.1172 -0.4361  0.7611
  854SOL     OW 4002   2.713   0.352   5.489  0.4178  0.8685  0.5957
  854SOL    HW1 4003   2.676   0.271   5.452  0.6227  1.6355 -1.3985
  854SOL    HW2 4004   2.639   0.393   5.534 -0.4265  0.8964 -0.7499
  855SOL     OW 4005   2.034   4.928   6.554  0.1314  0.2398 -0.0051
  855SOL    HW1 4006   2.035   4.986   6.630 -0.2172  0.0499  0.1412
  855SOL    HW2 4007   1.942   4.918   6.532  0.1098 -1.2679  0.7230
  856SOL     OW 4008   2.703   4.322   9.153  0.3180  0.4335  0.3871
  856SOL    HW1 4009   2.624   4.375   9.136  0.9002  0.7823 -1.4288
  856SOL    HW2 4010   2.767   4.354   9.090  1.5368 -0.7037  1.0089
  857SOL     OW 4011   2.361   2.810   1.559 -0.1821 -0.5583  0.4971
  857SOL    HW1 4012   2.431   2.749   1.581  1.6303 -0.0388 -3.0448
  857SOL    HW2 4013   2.295   2.756   1.515 -0.1951 -0.4917  0.4334
  858SOL     OW 4014   3.863   1.798   9.827 -0.2094 -0.5932 -0.3368
  858SOL    HW1 4015   3.782   1.777   9.781  0.3444 -0.0531 -1.6034
  858SOL    HW2 4016   3.905   1.866   9.774  0.2180  0.4516  1.2585
  859SOL     OW 4017   6.289   0.287  10.103 -0.1191  0.2481  0.2642
  859SOL    HW1 4018   6.358   0.229  10.135 -1.9941 -0.9035  2.5388
  859SOL    HW2 4019   6.210   0.256  10.147 -1.6936  2.9443 -0.4648
  860SOL     OW 4020   7.743   7.886   1.202  0.0811  0.4145  0.3238
  860SOL    HW1 4021   7.661   7.890   1.152  0.4886 -1.7291 -0.6471
  860SOL    HW2 4022   7.756   7.792   1.217  2.2308  0.7395  0.6860
  861SOL     OW 4023   6.300   5.475   9.957 -0.0104  0.5244  0.0684
  861SOL    HW1 4024   6.295   5.570   9.953 -0.0589  0.5218  0.0538
  861SOL    HW2 4025   6.215   5.445   9.925 -1.6701  0.5534  3.8763
  862SOL     OW 4026   6.344   3.807   3.308  0.0970 -0.4226  0.4662
  862SOL    HW1 4027   6.267   3.860   3.329  1.2942  0.9280  1.7935
  862SOL    HW2 4028   6.380   3.784   3.394  2.3496  0.8792 -0.0464
  863SOL     OW 4029   4.980   5.266   7.345 -0.3105 -0.1067  0.1255
  863SOL    HW1 4030   5.016   5.310   7.422  0.2760  0.3339 -0.3872
  863SOL    HW2 4031   4.885   5.266   7.360 -0.1228 -1.5332  1.6228
  864SOL     OW 4032   3.849   5.151   2.649  0.2023  0.0387  0.4554
  864SOL    HW1 4033   3.819   5.167   2.559  1.6845  0.2545 -0.0271
  864SOL    HW2 4034   3.789   5.083   2.682  0.0993 -0.5985 -0.9534
  865SOL     OW 4035   5.839   7.492   5.380 -0.7696 -0.1525  0.2697
  865SOL    HW1 4036   5.856   7.554   5.451  0.0832 -0.7531  0.6097
  865SOL    HW2 4037   5.743   7.487   5.375 -0.8426  0.6413  0.7126
  866SOL     OW 4038   1.333   6.309   0.933 -0.2884  0.2715  0.1567
  866SOL    HW1 4039   1.369   6.241   0.991  1.6557  1.1519  0.0286
  866SOL    HW2 4040   1.387   6.386   0.949 -2.5102  1.8717  0.3679
  867SOL     OW 4041   7.613   6.469   6.112 -0.0775 -0.2787 -0.4497
  867SOL    HW1 4042   7.567   6.451   6.030 -2.0805  4.4115 -0.6609
  867SOL    HW2 4043   7.663   6.549   6.094  2.1273 -0.9639  2.0333
  868SOL     OW 4044   2.964   0.699  10.645  0.0596 -0.0286 -0.2944
  868SOL    HW1 4045   3.059   0.691  10.641  0.2163  1.8768 -1.9024
  868SOL    HW2 4046   2.932   0.648  10.570 -0.2899 -1.5444  0.8544
  869SOL     OW 4047   4.382   5.239   4.054 -0.0726 -0.2905 -0.5440
  869SOL    HW1 4048   4.393   5.273   3.965 -0.2741  0.4970 -0.2748
  869SOL    HW2 4049   4.396   5.144   4.045  1.6915 -0.0299 -1.1216
  870SOL     OW 4050   5.557   0.279  12.274 -0.0999  0.4981 -0.0949
  870SOL    HW1 4051   5.530   0.332  12.199  0.5123  1.7866  0.5597
  870SOL    HW2 4052   5.478   0.268  12.326  0.0005  1.7946  0.3593
  871SOL     OW 4053   4.816   0.794   0.714 -0.0581 -0.1421  0.1707
  871SOL    HW1 4054   4.836   0.705   0.741 -3.0907 -1.7654 -2.2082
  871SOL    HW2 4055   4.733   0.814   0.757  1.5979  2.5826  2.4531
  872SOL     OW 4056   1.556   6.393  11.074  0.0506  0.4895 -0.3236
  872SOL    HW1 4057   1.646   6.421  11.089  0.2451  1.3216 -2.6569
  872SOL    HW2 4058   1.564   6.311  11.025 -0.5220 -0.5176  1.1713
  873SOL     OW 4059   1.692   6.268   0.792  0.1133 -0.1832 -0.6196
  873SOL    HW1 4060   1.742   6.349   0.780 -0.1228 -0.0265 -0.5517
  873SOL    HW2 4061   1.641   6.260   0.711  2.3890 -1.8754 -1.9979
  874SOL     OW 4062   1.252   3.786   5.400  0.3348 -0.2425  0.3080
  874SOL    HW1 4063   1.295   3.713   5.444 -1.1387 -2.0082 -0.9970
  874SOL    HW2 4064   1.163   3.755   5.385  0.2385  1.0051 -2.1588
  875SOL     OW 4065   1.182   6.006  10.575 -0.5266  0.0282  0.1779
  875SOL    HW1 4066   1.262   6.049  10.545 -0.6804 -0.2077 -0.6084
  875SOL    HW2 4067   1.176   5.927  10.521 -0.2713 -0.9742  1.5526
  876SOL     OW 4068   7.550   7.577   7.584  0.1508  0.0748 -0.6515
  876SOL    HW1 4069   7.477   7.565   7.525  0.3227 -1.4840 -0.5911
  876SOL    HW2 4070   7.546   7.502   7.643  0.2308  1.3541  1.0704
  877SOL     OW 4071   1.923   2.256   1.807  0.4480 -0.2872 -0.1118
  877SOL    HW1 4072   1.877   2.231   1.727 -0.9632 -2.7711  1.3549
  877SOL    HW2 4073   1.894   2.193   1.872  0.3153  2.5772  2.8291
  878SOL     OW 4074   0.609   7.073   3.801  0.0372 -0.8052 -0.1500
  878SOL    HW1 4075   0.582   6.987   3.832  0.1302 -1.2939 -1.3821
  878SOL    HW2 4076   0.578   7.076   3.710  0.2316  0.3734 -0.1885
  879SOL     OW 4077   6.929   7.310   7.157  0.2452  0.6725  0.0046
  879SOL    HW1 4078   6.994   7.289   7.089 -0.3184 -1.7607  0.1168
  879SOL    HW2 4079   6.854   7.256   7.135 -0.7358  1.3987  1.4253
  880SOL     OW 4080   5.821   0.047   6.674  0.3139 -0.0635 -0.3276
  880SOL    HW1 4081   5.788   0.066   6.762 -0.1695 -0.8578 -0.3294
  880SOL    HW2 4082   5.794   0.123   6.621  0.7284  0.4850  0.2245
  881SOL     OW 4083   1.865   6.197   7.165 -0.2784 -0.3000  0.0140
  881SOL    HW1 4084   1.866   6.101   7.162  1.5188 -0.3110 -2.1978
  881SOL    HW2 4085   1.779   6.221   7.131 -0.9424 -1.0978  1.0577
  882SOL     OW 4086   0.160   0.865   8.706 -0.2234 -0.2395 -0.0095
  882SOL    HW1 4087   0.078   0.820   8.729 -0.1712 -1.1024 -1.3750
  882SOL    HW2 4088   0.185   0.911   8.786 -0.1776 -2.7885  1.5681
  883SOL     OW 4089   6.322   7.977  11.713  0.3415 -0.1709 -0.0373
  883SOL    HW1 4090   6.296   8.012  11.798  0.0414 -0.4027 -0.0323
  883SOL    HW2 4091   6.418   7.978  11.714  0.3980 -2.1190  1.1224
  884SOL     OW 4092   7.410   5.595   9.688  0.4232 -0.4054  0.4934
  884SOL    HW1 4093   7.460   5.650   9.627  0.9123 -1.5254 -0.1567
  884SOL    HW2 4094   7.464   5.517   9.699 -1.1389 -1.6392 -0.1820
  885SOL     OW 4095   5.663   5.186   0.177  0.2428  0.0124  1.0796
  885SOL    HW1 4096   5.630   5.178   0.087 -2.4278  1.8151  1.7540
  885SOL    HW2 4097   5.697   5.100   0.198  2.7158  0.0010 -2.2162
  886SOL     OW 4098   1.448   7.625   9.032 -0.4580  0.8200 -0.2300
  886SOL    HW1 4099   1.439   7.720   9.024  0.0310  0.9883  1.0833
  886SOL    HW2 4100   1.364   7.590   9.000 -0.1105  1.5930 -2.1225
  887SOL     OW 4101   2.274   3.419  10.301  0.1303  0.4664 -0.4823
  887SOL    HW1 4102   2.275   3.328  10.330  2.7904  0.3344 -0.7146
  887SOL    HW2 4103   2.317   3.417  10.215 -0.6494  1.8208 -0.9277
  888SOL     OW 4104   4.287   7.756  11.885 -0.3723 -0.0012  0.2695
  888SOL    HW1 4105   4.297   7.701  11.807  1.7946  0.5206  0.1156
  888SOL    HW2 4106   4.266   7.843  11.851 -0.5699 -0.0215  0.3380
  889SOL     OW 4107   1.398   3.493  11.518 -0.1082 -0.4286 -0.7221
  889SOL    HW1 4108   1.372   3.431  11.450  0.7072 -0.5129 -0.9580
  889SOL    HW2 4109   1.419   3.438  11.594  0.4854 -0.4416 -0.8899
  890SOL     OW 4110   0.476   6.414   2.329  0.1729 -0.6519 -0.5619
  890SOL    HW1 4111   0.506   6.423   2.419 -0.1914  0.6336 -0.5486
  890SOL    HW2 4112   0.392   6.369   2.336 -0.6943  0.9483 -0.0718
  891SOL     OW 4113   0.019   4.614  11.107  0.6019 -0.5401  0.7128
  891SOL    HW1 4114   0.107   4.626  11.072  0.4847  1.4084  0.9609
  891SOL    HW2 4115   0.025   4.535  11.161  2.3099 -0.2079  1.0629
  892SOL     OW 4116   0.303   1.684  12.445  0.0942 -0.4424  0.1446
  892SOL    HW1 4117   0.370   1.748  12.468  1.5250 -1.4052 -1.0860
  892SOL    HW2 4118   0.264   1.717  12.365  0.2126 -0.6571 -0.0039
  893SOL     OW 4119   1.375   4.916   4.578  0.0065  0.0275 -0.1069
  893SOL    HW1 4120   1.308   4.980   4.600  0.7568  0.7855  0.0254
  893SOL    HW2 4121   1.327   4.834   4.564 -0.8867  0.4425  0.4639
  894SOL     OW 4122   7.695   6.725  11.550 -0.1858  0.8476 -0.4270
  894SOL    HW1 4123   7.783   6.720  11.512  0.0425  1.3126  0.0320
  894SOL    HW2 4124   7.705   6.780  11.627 -1.0114  1.4870 -0.7558
  895SOL     OW 4125   3.153   1.815  10.821 -0.3903  0.8224  0.2415
  895SOL    HW1 4126   3.119   1.901  10.798 -1.6060  0.9127  2.1637
  895SOL    HW2 4127   3.077   1.765  10.849  0.5001 -0.3841  0.6293
  896SOL     OW 4128   1.614   5.454   7.405  0.0537  0.1295 -0.2976
  896SOL    HW1 4129   1.704   5.427   7.384 -0.4012 -1.1999 -0.6498
  896SOL    HW2 4130   1.562   5.421   7.332 -0.8683  0.0121  0.3956
  897SOL     OW 4131   1.893   0.655   1.662 -0.1556  0.2742  0.4054
  897SOL    HW1 4132   1.848   0.635   1.744 -2.2899  2.6026 -0.0843
  897SOL    HW2 4133   1.845   0.603   1.596 -2.4151  2.7992 -0.1253
  898SOL     OW 4134   0.847   7.765   6.003  0.4108 -0.2809 -0.2472
  898SOL    HW1 4135   0.898   7.820   5.943  0.1561 -1.0491 -1.1911
  898SOL    HW2 4136   0.758   7.769   5.968  0.2567 -0.7244  0.0947
  899SOL     OW 4137   0.449   0.928   6.600  0.2444 -0.4217  0.7108
  899SOL    HW1 4138   0.359   0.953   6.580  0.5170  2.0753  2.1458
  899SOL    HW2 4139   0.492   1.010   6.623  3.3840 -1.2747 -1.4980
  900SOL     OW 4140   2.469   0.256   7.486 -0.5394  0.0531  0.2320
  900SOL    HW1 4141   2.460   0.166   7.455  0.3477 -0.4522  1.3749
  900SOL    HW2 4142   2.558   0.281   7.462 -0.1354 -0.0494  1.5630
  901SOL     OW 4143   2.062   5.857   3.314 -0.2896 -0.2907  0.4497
  901SOL    HW1 4144   2.091   5.941   3.279 -0.3148 -0.6073 -0.3468
  901SOL    HW2 4145   1.990   5.879   3.373  0.9306  0.4233  1.7614
  902SOL     OW 4146   5.774   1.260   4.562 -0.4095  0.3526 -0.4681
  902SOL    HW1 4147   5.732   1.264   4.648  1.9914  0.5832  0.7694
  902SOL    HW2 4148   5.855   1.309   4.572  0.0431  0.2323 -2.8406
  903SOL     OW 4149   1.133   1.508   0.685  0.0739  0.5542  0.4672
  903SOL    HW1 4150   1.218   1.550   0.697  0.4359  0.4745 -1.5605
  903SOL    HW2 4151   1.145   1.450   0.610 -1.6409  0.1642  0.4576
  904SOL     OW 4152   6.616   2.570   5.641  0.4822  0.1277  0.4637
  904SOL    HW1 4153   6.653   2.631   5.578 -0.6940  2.4680  1.8643
  904SOL    HW2 4154   6.539   2.616   5.676 -2.2457 -3.3329 -0.3950
  905SOL     OW 4155   1.419   1.246   8.028  0.3656 -0.3265 -0.4840
  905SOL    HW1 4156   1.484   1.296   7.978  0.3007 -0.0644 -0.3084
  905SOL    HW2 4157   1.374   1.193   7.962  1.8208 -1.7190 -0.4200
  906SOL     OW 4158   4.305   1.727  10.617 -0.0351  0.5358  0.4026
  906SOL    HW1 4159   4.217   1.716  10.652 -0.0033  1.6617  0.8849
  906SOL    HW2 4160   4.341   1.638  10.610 -1.4810 -0.0040 -0.5428
  907SOL     OW 4161   6.939   7.135   3.102 -0.2319  0.3684  0.0724
  907SOL    HW1 4162   7.020   7.117   3.054 -0.4031  0.1851 -0.1470
  907SOL    HW2 4163   6.958   7.214   3.152 -0.4399  1.2555 -1.2028
  908SOL     OW 4164   1.251   3.471   0.206 -0.1413 -0.2439 -0.1106
  908SOL    HW1 4165   1.339   3.477   0.245 -0.4694  0.2705  0.5592
  908SOL    HW2 4166   1.196   3.527   0.261 -1.4555 -2.5034  1.0247
  909SOL     OW 4167   0.977   7.433  11.239 -0.5793  0.1141  0.3853
  909SOL    HW1 4168   0.994   7.416  11.332  0.0863  0.4436  0.3297
  909SOL    HW2 4169   0.913   7.367  11.214 -0.1330 -0.5060  0.8697
  910SOL     OW 4170   1.262   1.412   2.488  0.2227  0.1822  0.5844
  910SOL    HW1 4171   1.208   1.490   2.478  0.4900  0.0891 -2.1043
  910SOL    HW2 4172   1.212   1.355   2.547 -1.7329  0.8696 -0.3279
  911SOL     OW 4173   7.329   7.216   7.899  0.1617  0.3841  0.0469
  911SOL    HW1 4174   7.416   7.232   7.861 -0.0926  0.6962 -0.4246
  911SOL    HW2 4175   7.301   7.133   7.861  0.4753  0.0129  0.6183
  912SOL     OW 4176   2.024   1.474   5.971  0.0874 -0.5411  0.3625
  912SOL    HW1 4177   2.026   1.381   5.949  0.5495 -0.0812 -1.8098
  912SOL    HW2 4178   2.113   1.493   6.000  0.1418 -0.6878  0.2964
  913SOL     OW 4179   0.042   2.738   2.064  0.4068 -0.6070  0.1659
  913SOL    HW1 4180  -0.045   2.751   2.028  0.9561  1.4042 -0.5293
  913SOL    HW2 4181   0.030   2.748   2.159 -0.0543  0.1041  0.0421
  914SOL     OW 4182   6.815   7.948   2.138 -0.0802 -0.3190 -0.4838
  914SOL    HW1 4183   6.841   8.027   2.091 -2.6809  1.3611  0.7341
  914SOL    HW2 4184   6.750   7.906   2.081 -1.6157  0.5659  0.5570
  915SOL     OW 4185   5.561   4.868  11.337 -0.1017  0.1931 -0.2932
  915SOL    HW1 4186   5.580   4.845  11.247  0.3678  0.3240 -0.2315
  915SOL    HW2 4187   5.493   4.935  11.331 -0.5234 -0.2597 -0.5213
  916SOL     OW 4188   1.572   5.996  11.970 -0.4226  0.4161 -0.1844
  916SOL    HW1 4189   1.638   5.927  11.963 -1.4294 -0.4221 -2.2140
  916SOL    HW2 4190   1.514   5.967  12.041  0.4055  0.3010  0.4586
  917SOL     OW 4191   4.029   5.300   8.230  0.4835 -0.1272 -0.2558
  917SOL    HW1 4192   4.034   5.313   8.325  1.1596 -2.1695  0.0263
  917SOL    HW2 4193   4.073   5.376   8.193 -0.3555  1.0327  1.0186
  918SOL     OW 4194   1.774   4.355   2.609 -0.0237 -0.0351 -0.0791
  918SOL    HW1 4195   1.772   4.339   2.704  0.5001 -0.2904 -0.1129
  918SOL    HW2 4196   1.764   4.269   2.569 -0.5842  0.1079 -0.2653
  919SOL     OW 4197   3.225   7.095   9.925  0.1655  0.4020 -0.0099
  919SOL    HW1 4198   3.242   7.120  10.016  0.5199  1.2725 -0.3022
  919SOL    HW2 4199   3.290   7.028   9.906 -0.9065 -0.9425  0.8433
  920SOL     OW 4200   0.906   1.831   4.410  0.0062  0.1276 -0.4761
  920SOL    HW1 4201   0.907   1.858   4.502 -0.5606  0.6334 -0.6119
  920SOL    HW2 4202   0.948   1.745   4.409  3.1193  1.5054 -0.1821
  921SOL     OW 4203   4.202   6.970  11.870  0.1735  0.4432 -0.1849
  921SOL    HW1 4204   4.150   6.890  11.879 -1.7836  1.7254  0.9273
  921SOL    HW2 4205   4.277   6.956  11.927  0.6916 -1.1613 -1.1974
  922SOL     OW 4206   4.830   0.124   6.738 -0.3790  0.1429 -0.3106
  922SOL    HW1 4207   4.765   0.111   6.669 -0.4961 -1.8680  0.0997
  922SOL    HW2 4208   4.829   0.042   6.787  2.2790  0.1141 -0.1289
  923SOL     OW 4209   7.527   1.603   9.684  0.0829  0.8192  0.0270
  923SOL    HW1 4210   7.619   1.577   9.678  0.3735  1.8765 -0.1852
  923SOL    HW2 4211   7.485   1.556   9.612  0.7533  1.5729 -0.8777
  924SOL     OW 4212   2.244   6.050   7.857 -0.2041 -0.0420 -0.0306
  924SOL    HW1 4213   2.219   6.020   7.945  1.6344  2.1224  1.3573
  924SOL    HW2 4214   2.167   6.098   7.826 -0.7971 -0.6217  0.4944
  925SOL     OW 4215   0.612   0.831   9.784  0.0917 -0.3094 -0.1056
  925SOL    HW1 4216   0.645   0.885   9.713 -2.8313 -0.6489 -1.9067
  925SOL    HW2 4217   0.663   0.858   9.861  0.7172  2.9213 -1.4877
  926SOL     OW 4218   0.944   3.351   8.949  0.1046  0.1520  0.2380
  926SOL    HW1 4219   1.004   3.405   8.898  2.4518 -3.4032 -1.1845
  926SOL    HW2 4220   0.998   3.319   9.022 -0.7459 -1.3187  0.2465
  927SOL     OW 4221   5.645   1.184   1.376 -0.1637 -0.1354  0.3662
  927SOL    HW1 4222   5.736   1.166   1.352 -0.7419  0.1346 -2.3650
  927SOL    HW2 4223   5.606   1.097   1.389  0.6161 -0.2364  2.3582
  928SOL     OW 4224   0.818   0.878  10.584  0.6814  0.1274  0.1714
  928SOL    HW1 4225   0.793   0.913  10.669  0.2026  1.1972 -0.3898
  928SOL    HW2 4226   0.775   0.935  10.521 -0.3666 -1.6475 -0.8007
  929SOL     OW 4227   6.360   0.278  12.379 -0.4964 -0.2895 -0.5181
  929SOL    HW1 4228   6.336   0.236  12.462 -0.7634 -0.1356 -0.5131
  929SOL    HW2 4229   6.410   0.355  12.405 -1.3779  0.2829 -0.4458
  930SOL     OW 4230   3.087   5.468   1.501 -0.3709  0.1330 -0.1657
  930SOL    HW1 4231   3.108   5.495   1.591  1.1236 -0.9333 -0.1482
  930SOL    HW2 4232   3.006   5.418   1.509 -1.4582  1.8869  0.2418
  931SOL     OW 4233   5.779   1.770   1.916 -0.0548 -0.2611 -0.0427
  931SOL    HW1 4234   5.715   1.721   1.864  1.9342 -2.3771 -0.6550
  931SOL    HW2 4235   5.843   1.704   1.943  1.9937  1.7857  0.3611
  932SOL     OW 4236   1.215   6.789   0.949  0.3984  0.6247 -0.2893
  932SOL    HW1 4237   1.160   6.768   1.024  0.3064 -0.0350 -0.5349
  932SOL    HW2 4238   1.165   6.760   0.873  0.4562  1.3533 -0.6201
  933SOL     OW 4239   1.732   2.670   7.454  0.1721 -0.2751  0.4050
  933SOL    HW1 4240   1.728   2.736   7.384  1.1596 -0.2340  0.3734
  933SOL    HW2 4241   1.713   2.587   7.409  1.0191 -0.2787  0.0340
  934SOL     OW 4242   6.323   6.644   5.622 -0.2745 -0.6208 -0.2534
  934SOL    HW1 4243   6.348   6.665   5.532 -2.0930 -2.1671 -1.1932
  934SOL    HW2 4244   6.389   6.581   5.651 -0.0857 -0.6574 -0.7509
  935SOL     OW 4245   2.874   0.682   7.604 -0.0761  0.5398  0.7116
  935SOL    HW1 4246   2.800   0.729   7.564  0.8479  1.5601  0.1584
  935SOL    HW2 4247   2.947   0.743   7.598  0.8716 -0.5263  1.0914
  936SOL     OW 4248   0.628   7.579   8.849 -0.2048 -0.3140 -0.0571
  936SOL    HW1 4249   0.626   7.484   8.862  0.2707 -0.0796  2.0767
  936SOL    HW2 4250   0.642   7.590   8.755 -1.8108 -2.3257 -0.6035
  937SOL     OW 4251   1.834   1.303   3.478  0.0804 -0.8139  0.0363
  937SOL    HW1 4252   1.891   1.371   3.441 -0.2357 -1.0411 -0.8952
  937SOL    HW2 4253   1.794   1.344   3.554  1.4051 -0.6118  0.6491
  938SOL     OW 4254   7.887   6.147   3.105 -0.0740 -0.6247  0.2557
  938SOL    HW1 4255   7.965   6.158   3.050 -0.7841 -0.1422 -0.6778
  938SOL    HW2 4256   7.816   6.130   3.043 -0.6884 -1.2435  1.1074
  939SOL     OW 4257   3.749   3.534  11.003 -0.4039 -0.1598  0.3656
  939SOL    HW1 4258   3.799   3.574  11.074  1.2204 -1.6043  0.1131
  939SOL    HW2 4259   3.687   3.602  10.976  1.2661  1.6651  0.8543
  940SOL     OW 4260   0.024   1.339  11.838 -0.5923  0.2712  0.2539
  940SOL    HW1 4261  -0.052   1.391  11.864 -0.7227  0.9595 -1.3559
  940SOL    HW2 4262   0.093   1.365  11.899 -1.1223  1.0643  0.5347
  941SOL     OW 4263   5.772   4.306   8.694  0.3526  0.2095  0.7265
  941SOL    HW1 4264   5.801   4.332   8.606  0.3189 -0.0154  0.6481
  941SOL    HW2 4265   5.676   4.309   8.689  0.3489  0.1069  0.7264
  942SOL     OW 4266   7.939   6.388   3.298 -0.7277 -0.0297 -0.3801
  942SOL    HW1 4267   7.872   6.335   3.343  1.5450 -2.5065  0.3302
  942SOL    HW2 4268   7.944   6.352   3.210 -0.3901  0.2226 -0.4678
  943SOL     OW 4269   7.549   1.373  12.153 -0.4213  0.2030  0.1747
  943SOL    HW1 4270   7.603   1.299  12.183  0.9874  0.9926 -0.3536
  943SOL    HW2 4271   7.463   1.356  12.193 -0.4871 -2.3061 -0.8061
  944SOL     OW 4272   7.945   0.672   6.669  0.2524 -0.0190 -0.3553
  944SOL    HW1 4273   7.919   0.744   6.727 -0.1210  0.4972 -1.1436
  944SOL    HW2 4274   7.879   0.604   6.684 -1.2898  1.0400 -1.8848
  945SOL     OW 4275   7.069   4.971   2.140 -0.1200 -0.6870 -0.8397
  945SOL    HW1 4276   7.084   4.950   2.232  0.3944 -2.9226 -1.3487
  945SOL    HW2 4277   7.137   5.035   2.118  0.3309 -0.8212  0.1230
  946SOL     OW 4278   4.213   2.969   2.384  0.3467  0.6070  0.6919
  946SOL    HW1 4279   4.224   3.020   2.464 -1.5495 -0.4224  1.6876
  946SOL    HW2 4280   4.290   2.912   2.380  0.8209  1.1930  1.3675
  947SOL     OW 4281   0.515   1.623   0.187 -0.3748  0.4672 -0.0894
  947SOL    HW1 4282   0.598   1.595   0.148  0.0399  1.5271 -0.0031
  947SOL    HW2 4283   0.452   1.557   0.159  0.4162 -0.1290 -0.5003
  948SOL     OW 4284   3.476   3.066   7.815 -0.5006  0.0656 -0.0657
  948SOL    HW1 4285   3.559   3.023   7.840  1.0987  2.7644 -0.3369
  948SOL    HW2 4286   3.432   3.082   7.898 -0.1727 -0.2970  0.1865
  949SOL     OW 4287   7.745   3.182  11.962  0.0664 -0.3600  0.2255
  949SOL    HW1 4288   7.800   3.161  12.037 -1.0342  0.7764  1.3844
  949SOL    HW2 4289   7.694   3.258  11.989 -0.0448  0.3645 -1.8449
  950SOL     OW 4290   0.941   4.820   8.052  0.1331  0.1099 -0.6137
  950SOL    HW1 4291   0.959   4.782   8.138 -0.6720 -2.0820 -1.3365
  950SOL    HW2 4292   1.021   4.866   8.028  0.2949  0.9482  1.3722
  951SOL     OW 4293   3.115   4.293   3.544  0.0463  0.1862 -0.1297
  951SOL    HW1 4294   3.056   4.240   3.599 -0.8650  0.9786 -0.3045
  951SOL    HW2 4295   3.202   4.256   3.560 -0.5297 -1.2470 -0.1293
  952SOL     OW 4296   2.466   5.832   4.827 -0.5312 -0.1899  0.0316
  952SOL    HW1 4297   2.483   5.872   4.742  0.0170  0.2271  0.3286
  952SOL    HW2 4298   2.375   5.854   4.846 -0.8315 -0.7713 -0.6978
  953SOL     OW 4299   0.506   4.845   5.055 -0.4779  0.0106  0.3214
  953SOL    HW1 4300   0.479   4.906   5.123  0.4362 -0.6221  1.2796
  953SOL    HW2 4301   0.443   4.858   4.984 -1.7236  0.3559  1.4618
  954SOL     OW 4302   7.146   0.025  11.202  0.3197  0.4188 -0.0494
  954SOL    HW1 4303   7.125  -0.024  11.282  1.3390  0.1776  0.0862
  954SOL    HW2 4304   7.228   0.069  11.222 -0.4750  2.0538 -0.2429
  955SOL     OW 4305   2.653   5.064   3.522 -0.2531  0.3653 -0.2664
  955SOL    HW1 4306   2.580   5.076   3.583 -0.5870 -1.3488 -0.2742
  955SOL    HW2 4307   2.707   4.996   3.563 -0.8574 -1.3672 -2.1583
  956SOL     OW 4308   4.685   4.315   9.184 -0.5553 -0.1881  0.2201
  956SOL    HW1 4309   4.597   4.347   9.167 -0.0430  0.9562 -0.3400
  956SOL    HW2 4310   4.707   4.262   9.107 -0.0732  1.0354 -0.5099
  957SOL     OW 4311   0.130   7.099   8.133 -0.0709  0.7741 -0.6868
  957SOL    HW1 4312   0.138   7.080   8.039 -1.6134  2.0165 -1.1119
  957SOL    HW2 4313   0.067   7.034   8.165  1.2613 -0.3471 -0.2398
  958SOL     OW 4314   2.660   7.969  11.766  0.3306 -0.4186 -0.5544
  958SOL    HW1 4315   2.637   8.004  11.851 -0.4465  0.0264 -0.9421
  958SOL    HW2 4316   2.585   7.988  11.710  1.4512  0.7400 -1.7612
  959SOL     OW 4317   1.302   0.692   1.418  0.4417 -0.2531 -0.6605
  959SOL    HW1 4318   1.318   0.642   1.498 -1.4939  0.8656  0.5217
  959SOL    HW2 4319   1.385   0.692   1.372  1.2665 -2.0451  0.7136
  960SOL     OW 4320   5.141   2.671   3.863  0.2585  0.0934 -0.3144
  960SOL    HW1 4321   5.099   2.667   3.777  2.0562 -1.4784 -1.2000
  960SOL    HW2 4322   5.101   2.600   3.913  0.2441  0.0684 -0.3616
  961SOL     OW 4323   2.198   4.767   5.708  0.4374 -0.3445  0.1012
  961SOL    HW1 4324   2.107   4.784   5.732  0.3034 -1.7995  0.7439
  961SOL    HW2 4325   2.250   4.802   5.780  0.1830 -2.2869  1.2968
  962SOL     OW 4326   6.662   6.749   3.606 -0.1360 -0.2627 -0.7751
  962SOL    HW1 4327   6.623   6.832   3.633 -2.4165 -2.2157  2.6665
  962SOL    HW2 4328   6.745   6.745   3.653 -0.0170  0.0210 -0.9531
  963SOL     OW 4329   1.809   0.827   8.429  0.2523  0.2998  0.3041
  963SOL    HW1 4330   1.796   0.736   8.404 -1.5254 -0.2375  2.8418
  963SOL    HW2 4331   1.735   0.873   8.390  0.9882  0.6697 -0.7234
  964SOL     OW 4332   2.891   2.247   3.053  0.4187  0.8366 -0.1415
  964SOL    HW1 4333   2.842   2.281   2.979  1.4739  0.6229 -0.9580
  964SOL    HW2 4334   2.983   2.259   3.029  0.8327  2.6173  1.9706
  965SOL     OW 4335   4.224   0.730  12.124  0.8424  0.0926 -0.5057
  965SOL    HW1 4336   4.232   0.739  12.029  2.7919  0.3771 -0.3590
  965SOL    HW2 4337   4.235   0.819  12.157  2.0207 -0.2436  0.0551
  966SOL     OW 4338   4.597   0.299   7.005 -0.5102 -0.2285 -0.0477
  966SOL    HW1 4339   4.610   0.350   7.084 -1.1669 -0.7701  0.4263
  966SOL    HW2 4340   4.509   0.261   7.015 -0.9057  0.2684 -1.3605
  967SOL     OW 4341   7.420   7.179  12.198  0.3431  0.1612 -0.4440
  967SOL    HW1 4342   7.471   7.196  12.118  0.4226 -0.2737 -0.4878
  967SOL    HW2 4343   7.422   7.084  12.208  2.4581  0.3098  1.4522
  968SOL     OW 4344   5.499   7.261  11.540 -0.2101  0.5535 -0.1590
  968SOL    HW1 4345   5.408   7.233  11.546 -0.3789  1.0898 -0.1244
  968SOL    HW2 4346   5.542   7.219  11.615 -0.5103  0.5961  0.0372
  969SOL     OW 4347   7.510   3.553   2.031 -0.4583 -0.4321  0.4921
  969SOL    HW1 4348   7.535   3.542   1.939 -0.9895  1.8936  0.0075
  969SOL    HW2 4349   7.579   3.607   2.068 -0.2809 -1.3085  1.4709
  970SOL     OW 4350   5.705   3.395   0.017 -0.0978  0.1445  0.4660
  970SOL    HW1 4351   5.792   3.356   0.023  0.5140  1.4262  0.1780
  970SOL    HW2 4352   5.645   3.320   0.014  1.1366 -0.8640 -1.7678
  971SOL     OW 4353   6.684   4.114  11.612  0.0197 -0.0065  0.1788
  971SOL    HW1 4354   6.736   4.034  11.607 -1.5358 -1.2714  2.3240
  971SOL    HW2 4355   6.695   4.144  11.702 -1.9607  0.3169  0.3590
  972SOL     OW 4356   4.687   1.194   6.551 -0.1614  0.1803 -0.3777
  972SOL    HW1 4357   4.634   1.242   6.488  2.0185  2.4606 -0.6141
  972SOL    HW2 4358   4.764   1.166   6.501  0.2596 -0.4885  0.6093
  973SOL     OW 4359   2.879   5.717   1.454  0.0335 -0.0316 -0.3542
  973SOL    HW1 4360   2.855   5.699   1.545  0.8991 -0.9730 -0.2917
  973SOL    HW2 4361   2.914   5.805   1.455  0.5526 -0.2433  0.3322
  974SOL     OW 4362   1.635   0.782   4.089  0.4397  0.7127 -0.2357
  974SOL    HW1 4363   1.647   0.876   4.101  0.9774  0.5951  0.1870
  974SOL    HW2 4364   1.637   0.746   4.178  0.3522  0.2886 -0.4007
  975SOL     OW 4365   6.982   6.200   6.014  0.4794  0.3043 -0.3452
  975SOL    HW1 4366   6.919   6.272   6.011 -2.3416 -1.6149  3.5397
  975SOL    HW2 4367   7.041   6.223   6.087 -0.6701 -1.2672  1.1827
  976SOL     OW 4368   6.167   6.436   2.455 -0.2436 -0.2763  0.2531
  976SOL    HW1 4369   6.072   6.423   2.449 -0.5845  2.3173 -1.9484
  976SOL    HW2 4370   6.194   6.449   2.364  1.9509  0.7188  0.9963
  977SOL     OW 4371   7.652   7.133   1.980  0.4310  0.1660  0.5333
  977SOL    HW1 4372   7.690   7.133   1.891  0.2818  0.5436  0.4703
  977SOL    HW2 4373   7.576   7.075   1.973  0.0369  0.7131  0.2510
  978SOL     OW 4374   3.243   0.297   3.377  0.5548  0.5591  0.0214
  978SOL    HW1 4375   3.230   0.367   3.441 -0.6791  0.0563  0.3460
  978SOL    HW2 4376   3.335   0.272   3.387  0.5649  0.9883  1.0881
  979SOL     OW 4377   1.725   3.120   0.637 -0.2791 -0.1107 -0.5473
  979SOL    HW1 4378   1.709   3.036   0.680  0.9402 -0.8147 -1.3893
  979SOL    HW2 4379   1.650   3.132   0.579 -1.0583 -0.0061  0.4530
  980SOL     OW 4380   5.697   7.432   4.007 -0.6570  0.2624 -0.4095
  980SOL    HW1 4381   5.714   7.345   3.971 -2.4238 -0.0191 -0.6058
  980SOL    HW2 4382   5.687   7.488   3.930 -0.3903  0.4849 -0.2863
  981SOL     OW 4383   6.532   4.896   7.963  0.3424  0.3358  0.1301
  981SOL    HW1 4384   6.480   4.952   8.021  1.0951 -0.1638  1.3381
  981SOL    HW2 4385   6.468   4.845   7.913 -0.3566  2.1609 -0.9177
  982SOL     OW 4386   6.510   7.340   0.502 -0.3434 -0.2592  0.2912
  982SOL    HW1 4387   6.427   7.357   0.457 -0.9733 -1.4833  0.9274
  982SOL    HW2 4388   6.491   7.357   0.595  0.0121 -0.8369  0.4808
  983SOL     OW 4389   3.901   7.333   4.833 -0.0794  0.9673  0.0967
  983SOL    HW1 4390   3.987   7.365   4.858  0.0365  0.4935  0.3233
  983SOL    HW2 4391   3.918   7.273   4.760 -0.1843  0.6764  0.3077
  984SOL     OW 4392   1.408   0.805   8.924 -0.1790  0.4850  0.4659
  984SOL    HW1 4393   1.393   0.859   9.001 -0.3903  2.0520 -0.6390
  984SOL    HW2 4394   1.321   0.798   8.883  0.2299  1.1081 -0.5355
  985SOL     OW 4395   3.744   7.208   2.528 -0.0179 -0.6001 -0.3072
  985SOL    HW1 4396   3.656   7.191   2.493 -0.0744 -1.8209  0.3760
  985SOL    HW2 4397   3.760   7.300   2.508 -0.7805 -0.7679 -1.9153
  986SOL     OW 4398   3.212   6.015   2.483 -0.0330  0.6042  0.1118
  986SOL    HW1 4399   3.246   5.926   2.488 -1.8611 -0.1493  0.1452
  986SOL    HW2 4400   3.253   6.052   2.405  0.0436 -0.6007 -0.4485
  987SOL     OW 4401   3.159   3.766   2.122  0.8011  0.2133 -0.3848
  987SOL    HW1 4402   3.217   3.834   2.087  1.0546  0.1895 -0.0053
  987SOL    HW2 4403   3.192   3.748   2.210  0.9637 -0.6678 -0.6133
  988SOL     OW 4404   5.190   6.707   2.183 -0.7154 -0.4101 -0.0738
  988SOL    HW1 4405   5.240   6.788   2.171 -3.7337  1.6959  0.1375
  988SOL    HW2 4406   5.102   6.729   2.150 -2.0761 -3.1238  1.4289
  989SOL     OW 4407   3.361   5.574   8.983 -0.1018  0.1914  0.1212
  989SOL    HW1 4408   3.302   5.647   9.005 -0.1969  0.4480 -0.9473
  989SOL    HW2 4409   3.343   5.555   8.891  1.6381  0.4047 -0.2909
  990SOL     OW 4410   6.006   2.831   4.995 -0.0691  0.2420 -0.0233
  990SOL    HW1 4411   6.062   2.881   4.935 -3.8141  2.0736 -2.4751
  990SOL    HW2 4412   5.966   2.898   5.051  0.5875 -1.0543  2.0991
  991SOL     OW 4413   0.448   3.227   2.154  0.3962  0.1389  0.3096
  991SOL    HW1 4414   0.517   3.271   2.104 -0.0239  0.1427 -0.2694
  991SOL    HW2 4415   0.481   3.227   2.244  0.9411  0.5600  0.1186
  992SOL     OW 4416   2.555   3.377   3.612  0.5191  0.5676  0.3042
  992SOL    HW1 4417   2.601   3.337   3.686  1.5107  2.0034  0.5123
  992SOL    HW2 4418   2.479   3.320   3.597 -0.4445  0.8952  3.2500
  993SOL     OW 4419   7.104   3.004  11.259  0.1606 -0.3959 -0.0838
  993SOL    HW1 4420   7.069   2.953  11.332  0.8972  0.8800  1.1905
  993SOL    HW2 4421   7.046   3.080  11.252  1.7750  1.0201  1.1514
  994SOL     OW 4422   7.280   0.237   5.683 -0.0778 -0.1467 -0.2292
  994SOL    HW1 4423   7.247   0.200   5.602  0.5359  1.6529 -1.3566
  994SOL    HW2 4424   7.265   0.331   5.675  2.0342  0.3421  0.7486
  995SOL     OW 4425   5.175   6.694   1.473  0.1138  0.4337  0.1636
  995SOL    HW1 4426   5.128   6.626   1.521  0.4729 -1.3377 -1.8259
  995SOL    HW2 4427   5.265   6.661   1.465  0.4855  1.4822 -0.2255
  996SOL     OW 4428   3.488   0.843   9.882  0.6878  0.6880  0.4722
  996SOL    HW1 4429   3.401   0.832   9.922  0.2002 -0.8226 -0.8749
  996SOL    HW2 4430   3.549   0.843   9.956 -0.3349 -0.0464  1.3456
  997SOL     OW 4431   2.410   7.333   1.779  0.4890 -0.6032  0.0287
  997SOL    HW1 4432   2.425   7.286   1.697  0.8738 -2.3801  1.0603
  997SOL    HW2 4433   2.498   7.355   1.810  0.3324  0.3244 -0.1622
  998SOL     OW 4434   4.896   6.383  10.060  0.2772  0.0401  0.1051
  998SOL    HW1 4435   4.807   6.394  10.027 -0.1785  0.9078  1.4913
  998SOL    HW2 4436   4.915   6.290  10.048 -0.9731 -0.2466  0.1466
  999SOL     OW 4437   7.916   7.237   3.957  0.3110 -0.7635 -0.4473
  999SOL    HW1 4438   7.979   7.206   4.022 -0.3550 -0.0266  0.5829
  999SOL    HW2 4439   7.963   7.303   3.907  0.0854  0.5216  0.9827
 1000SOL     OW 4440   7.626   3.439  11.021 -0.3511  0.4214 -0.4593
 1000SOL    HW1 4441   7.586   3.355  11.042 -0.4643  1.2618  3.5209
 1000SOL    HW2 4442   7.562   3.484  10.966 -1.8778 -0.7739  0.2816
 1001SOL     OW 4443   2.430   2.671   8.311 -0.0116 -0.2806  0.2969
 1001SOL    HW1 4444   2.355   2.667   8.250 -1.4189  0.3572  1.9009
 1001SOL    HW2 4445   2.493   2.609   8.275 -1.3620 -0.9627 -1.0396
 1002SOL     OW 4446   4.941   0.533   8.592 -0.2401 -0.3042 -0.3732
 1002SOL    HW1 4447   4.980   0.467   8.649  0.0152 -0.3736 -0.6216
 1002SOL    HW2 4448   4.993   0.528   8.512 -0.2918  0.1172 -0.4360
 1003SOL     OW 4449   0.841   5.403  11.493  0.2931  0.1294  0.3830
 1003SOL    HW1 4450   0.786   5.371  11.422  0.3756 -0.7979  0.7289
 1003SOL    HW2 4451   0.787   5.395  11.572  0.5628  0.1700  0.5757
 1004SOL     OW 4452   5.005   6.166  11.536  0.0027  0.1734  0.5296
 1004SOL    HW1 4453   4.932   6.201  11.484 -0.6677 -2.4544 -0.4779
 1004SOL    HW2 4454   4.968   6.151  11.623 -0.0227  0.8606  0.6419
 1005SOL     OW 4455   0.220   4.068  12.056  0.0191 -0.4035  0.0956
 1005SOL    HW1 4456   0.197   3.993  12.111  1.2890  0.9994  2.7371
 1005SOL    HW2 4457   0.154   4.134  12.078  0.5636  0.1971 -0.0503
 1006SOL     OW 4458   7.514   4.158  12.329  0.8107  0.1529  0.2164
 1006SOL    HW1 4459   7.574   4.172  12.402  1.7362  2.4174 -0.8686
 1006SOL    HW2 4460   7.433   4.202  12.355  0.9732  0.5297  0.0926
 1007SOL     OW 4461   5.594   1.942   2.447 -0.6777 -0.1048 -0.8775
 1007SOL    HW1 4462   5.555   1.968   2.530  0.7287 -0.2140 -0.1555
 1007SOL    HW2 4463   5.575   2.015   2.388 -0.3495  0.7094 -0.0106
 1008SOL     OW 4464   0.593   2.021   1.897  0.2083 -0.5279  0.0521
 1008SOL    HW1 4465   0.563   2.107   1.926 -0.3591 -1.2542  1.7431
 1008SOL    HW2 4466   0.525   1.991   1.836  0.1012 -0.0385 -0.0721
 1009SOL     OW 4467   0.328   3.430  10.914 -0.4116 -0.3015 -0.5554
 1009SOL    HW1 4468   0.422   3.423  10.903 -0.1224 -0.0879  1.4329
 1009SOL    HW2 4469   0.304   3.355  10.969 -1.0614  0.7607  0.6575
 1010SOL     OW 4470   4.255   4.674  12.353  0.0875 -0.3152 -0.0749
 1010SOL    HW1 4471   4.203   4.622  12.414  0.2233 -0.1500  0.1869
 1010SOL    HW2 4472   4.200   4.682  12.275 -0.7248  0.7250  0.5757
 1011SOL     OW 4473   7.339   4.946   3.259  0.0597  0.2739 -0.5219
 1011SOL    HW1 4474   7.374   4.862   3.288  1.4311  0.8573 -0.4013
 1011SOL    HW2 4475   7.244   4.934   3.258  0.2894 -1.8374 -2.2857
 1012SOL     OW 4476   0.110   2.747   5.676  0.0357  0.3382  0.1650
 1012SOL    HW1 4477   0.048   2.674   5.666 -0.0396  0.5528 -1.0545
 1012SOL    HW2 4478   0.072   2.818   5.624  1.5868  0.2726 -1.1412
 1013SOL     OW 4479   1.600   0.964   1.815 -0.3647 -0.0464 -0.1830
 1013SOL    HW1 4480   1.569   1.011   1.737 -4.1609 -0.1319  1.0746
 1013SOL    HW2 4481   1.585   1.026   1.887 -0.0118 -1.1277  0.8493
 1014SOL     OW 4482   6.231   3.950   1.578 -0.3529  0.1343  0.7627
 1014SOL    HW1 4483   6.187   3.987   1.655 -0.4069 -0.2015  0.8936
 1014SOL    HW2 4484   6.196   3.862   1.570  1.2368 -0.6353  1.6576
 1015SOL     OW 4485   1.461   6.151   0.661  0.2395  0.5640 -0.1068
 1015SOL    HW1 4486   1.441   6.114   0.747 -0.5249 -0.1107 -0.5613
 1015SOL    HW2 4487   1.410   6.232   0.657 -1.4992 -0.5122 -0.7615
 1016SOL     OW 4488   5.095   5.299   8.838  0.1680 -0.1379 -0.0814
 1016SOL    HW1 4489   5.027   5.280   8.902  2.0989  0.9110  2.4261
 1016SOL    HW2 4490   5.161   5.231   8.849  0.9991  0.6129 -0.2096
 1017SOL     OW 4491   0.600   1.764   1.239 -0.1842 -0.0495 -0.0743
 1017SOL    HW1 4492   0.563   1.699   1.179 -1.6012 -2.0036  2.7204
 1017SOL    HW2 4493   0.686   1.785   1.202 -1.1998 -0.6532 -3.0396
 1018SOL     OW 4494   6.176   7.219   8.823  0.0329 -0.4219 -0.5519
 1018SOL    HW1 4495   6.168   7.230   8.728 -0.0007 -0.8047 -0.5981
 1018SOL    HW2 4496   6.165   7.306   8.859 -0.2130 -0.3151 -0.8839
 1019SOL     OW 4497   3.096   6.479   8.283 -0.1030 -0.0216 -0.5347
 1019SOL    HW1 4498   3.115   6.396   8.326 -0.1058 -0.3312 -1.1210
 1019SOL    HW2 4499   3.128   6.545   8.344  2.6360 -0.4806 -1.3251
 1020SOL     OW 4500   5.065   3.257   1.250 -0.4259  0.0280 -0.6147
 1020SOL    HW1 4501   5.101   3.251   1.162  2.2418  1.0533  0.2799
 1020SOL    HW2 4502   5.138   3.234   1.307 -1.5996  0.9214  1.3644
 1021SOL     OW 4503   3.072   2.679   5.370 -0.6377  0.2875  0.0864
 1021SOL    HW1 4504   3.115   2.747   5.421 -0.3911  0.2849 -0.1139
 1021SOL    HW2 4505   3.055   2.719   5.285  0.2615 -0.1503 -0.3138
 1022SOL     OW 4506   1.669   0.337   6.702 -0.1713  0.6361  0.2698
 1022SOL    HW1 4507   1.673   0.271   6.633  2.7929  0.5808  0.3969
 1022SOL    HW2 4508   1.641   0.289   6.780 -2.5849  0.5215 -0.5686
 1023SOL     OW 4509   0.237   0.169   1.531 -0.0837  0.3304 -0.0089
 1023SOL    HW1 4510   0.285   0.089   1.549 -0.3396 -0.6003 -2.9164
 1023SOL    HW2 4511   0.150   0.154   1.568  0.0070 -0.5411 -0.1297
 1024SOL     OW 4512   2.906   1.771   3.389 -0.2712 -0.4562  0.7267
 1024SOL    HW1 4513   2.971   1.701   3.398 -1.8599 -1.9358  1.1189
 1024SOL    HW2 4514   2.874   1.762   3.299  1.9814  2.1032 -0.4906
 1025SOL     OW 4515   1.086   6.341  12.249 -0.2719  0.0942  0.8494
 1025SOL    HW1 4516   1.043   6.296  12.322  1.2428 -0.3729  1.4968
 1025SOL    HW2 4517   1.057   6.292  12.171  1.0585 -1.8472  1.5006
 1026SOL     OW 4518   2.658   7.470  11.576 -0.1159  0.0057 -0.1493
 1026SOL    HW1 4519   2.646   7.410  11.503  2.3579  1.3875 -1.8314
 1026SOL    HW2 4520   2.582   7.528  11.573 -0.9993 -1.1332 -0.3783
 1027SOL     OW 4521   0.104   2.841   7.245  0.4259 -0.1915 -0.4553
 1027SOL    HW1 4522   0.133   2.825   7.335 -1.2005 -0.8518 -0.0138
 1027SOL    HW2 4523   0.053   2.921   7.250 -1.0570 -1.0931 -0.4291
 1028SOL     OW 4524   3.460   3.162   7.076  0.2221 -0.3536 -0.2806
 1028SOL    HW1 4525   3.553   3.143   7.088  0.2700 -0.0567 -0.1675
 1028SOL    HW2 4526   3.454   3.257   7.086 -0.4876 -0.5892  2.4020
 1029SOL     OW 4527   2.640   1.442   3.861  0.2190  0.7482 -0.2266
 1029SOL    HW1 4528   2.690   1.363   3.846 -0.4155  0.0550  1.1729
 1029SOL    HW2 4529   2.562   1.431   3.807 -0.8142 -0.5402  1.4176
 1030SOL     OW 4530   3.148   5.417   0.833 -0.0524  0.3352  0.2783
 1030SOL    HW1 4531   3.142   5.362   0.911  1.4929 -0.2737 -0.0011
 1030SOL    HW2 4532   3.196   5.495   0.862 -1.3746  1.1232  0.4322
 1031SOL     OW 4533   1.443   4.045   2.495 -0.1598 -0.1993 -0.0818
 1031SOL    HW1 4534   1.518   4.006   2.450  0.4869 -1.0705  1.6423
 1031SOL    HW2 4535   1.432   4.131   2.454  2.7503  0.6041  0.5938
 1032SOL     OW 4536   6.688   2.238   1.817  0.3178 -0.0257 -0.0717
 1032SOL    HW1 4537   6.637   2.210   1.893 -0.1430 -0.3952 -0.5100
 1032SOL    HW2 4538   6.778   2.213   1.838  0.2821  0.3887  0.5930
 1033SOL     OW 4539   7.647   6.838   8.734 -0.0263 -0.3590 -0.1370
 1033SOL    HW1 4540   7.668   6.824   8.826  3.5341 -0.4294 -0.8442
 1033SOL    HW2 4541   7.661   6.752   8.693 -1.8714 -0.4096 -0.7796
 1034SOL     OW 4542   5.640   7.045   1.645  0.2875 -0.0455  0.2717
 1034SOL    HW1 4543   5.555   7.019   1.680  0.0373  0.6326  0.1807
 1034SOL    HW2 4544   5.661   7.126   1.690  0.3020  0.4548 -0.6115
 1035SOL     OW 4545   3.683   6.480  11.959 -0.3023  0.4635 -0.0275
 1035SOL    HW1 4546   3.611   6.544  11.960 -0.2284  0.6479  3.2449
 1035SOL    HW2 4547   3.641   6.396  11.940 -1.0809  0.8446 -0.0101
 1036SOL     OW 4548   4.947   2.705   2.342 -0.0853  0.5584  0.4944
 1036SOL    HW1 4549   4.931   2.780   2.285 -1.1588  1.7191  2.2101
 1036SOL    HW2 4550   4.998   2.741   2.414  1.5991 -0.9603  0.1144
 1037SOL     OW 4551   4.509   4.341   9.797 -0.0111 -0.4156 -0.3033
 1037SOL    HW1 4552   4.515   4.281   9.722 -0.5011  0.5627 -1.1557
 1037SOL    HW2 4553   4.417   4.340   9.821 -0.2778  0.9595 -1.1673
 1038SOL     OW 4554   6.318   5.684   9.288  0.4049  0.0802  0.1476
 1038SOL    HW1 4555   6.271   5.616   9.336 -1.3547  1.3205  0.3027
 1038SOL    HW2 4556   6.403   5.646   9.268 -0.3954 -2.0161  0.5191
 1039SOL     OW 4557   4.748   6.278   7.958 -0.3402  0.6479 -0.3626
 1039SOL    HW1 4558   4.682   6.210   7.973  1.6564 -1.6929 -1.4305
 1039SOL    HW2 4559   4.756   6.282   7.862  1.1780  0.7455 -0.2521
 1040SOL     OW 4560   0.439   5.215   6.305 -0.1112 -0.1632 -0.2464
 1040SOL    HW1 4561   0.393   5.294   6.333 -1.8923 -1.0603 -0.4559
 1040SOL    HW2 4562   0.460   5.169   6.386 -2.5296 -1.2792 -0.1582
 1041SOL     OW 4563   1.414   6.268   3.111 -0.1803  0.3884 -0.1227
 1041SOL    HW1 4564   1.376   6.322   3.180  1.7010  0.7547  0.6925
 1041SOL    HW2 4565   1.355   6.194   3.103  0.9164 -1.2162  3.9675
 1042SOL     OW 4566   4.440   1.407  10.950 -0.0251  0.1043  0.5985
 1042SOL    HW1 4567   4.479   1.459  10.880 -0.9809  0.4941  0.3393
 1042SOL    HW2 4568   4.514   1.362  10.991  0.6096  0.3330 -0.2767
 1043SOL     OW 4569   0.328   6.060   1.688  0.0878  0.6677  0.5056
 1043SOL    HW1 4570   0.324   6.083   1.595 -1.1446  1.0174  0.6341
 1043SOL    HW2 4571   0.297   5.969   1.692  2.1164 -0.0978  0.3610
 1044SOL     OW 4572   5.918   1.561   2.728 -0.4893  0.3827  0.0559
 1044SOL    HW1 4573   5.856   1.529   2.794  0.5661 -1.0524  0.3891
 1044SOL    HW2 4574   6.000   1.572   2.776  0.0658  0.1583 -0.8358
 1045SOL     OW 4575   7.371   1.995   5.143  0.0716 -0.3346 -0.0226
 1045SOL    HW1 4576   7.413   2.079   5.125  1.0720 -0.6372  0.7389
 1045SOL    HW2 4577   7.278   2.014   5.147  0.1950  0.5261 -0.9451
 1046SOL     OW 4578   1.190   3.152   7.360  0.6117  0.5442  0.8887
 1046SOL    HW1 4579   1.129   3.091   7.320  2.3620 -0.5558 -0.2845
 1046SOL    HW2 4580   1.204   3.119   7.449  2.8962 -1.9861 -0.2638
 1047SOL     OW 4581   1.790   5.571   5.381 -0.3643 -0.0712 -0.6155
 1047SOL    HW1 4582   1.828   5.486   5.361 -0.3374  0.1960 -1.8149
 1047SOL    HW2 4583   1.756   5.602   5.297 -0.3967  1.0814 -0.1979
 1048SOL     OW 4584   4.359   0.373   3.534 -0.6509  0.0395  0.6667
 1048SOL    HW1 4585   4.289   0.341   3.477 -0.2270 -1.1605  0.7868
 1048SOL    HW2 4586   4.439   0.332   3.499 -0.0383  1.1785  0.6883
 1049SOL     OW 4587   4.917   2.838  11.625  0.0398 -0.5810 -0.1639
 1049SOL    HW1 4588   4.859   2.870  11.556 -0.9607  0.0425  0.9214
 1049SOL    HW2 4589   4.888   2.749  11.642 -1.1394 -0.0313  0.8786
 1050SOL     OW 4590   0.546   0.523   4.408 -0.4122 -0.2483  0.0644
 1050SOL    HW1 4591   0.547   0.428   4.417  1.2769 -0.6021 -2.6280
 1050SOL    HW2 4592   0.631   0.551   4.441 -0.2362  0.1073 -0.6647
 1051SOL     OW 4593   7.076   1.411   2.255 -0.0984 -0.0752  0.7073
 1051SOL    HW1 4594   7.037   1.445   2.336  0.6349 -1.1618  1.5610
 1051SOL    HW2 4595   7.163   1.450   2.253 -0.0525 -0.1869  0.5336
 1052SOL     OW 4596   1.222   4.716   2.308 -0.0980  0.3603 -0.5610
 1052SOL    HW1 4597   1.295   4.724   2.371 -0.1545 -0.4741 -0.3813
 1052SOL    HW2 4598   1.194   4.807   2.294  1.4586  0.7864 -1.2124
 1053SOL     OW 4599   6.881   7.206   2.489 -0.3429 -0.5142  0.0647
 1053SOL    HW1 4600   6.878   7.156   2.571 -0.6974  0.1168  0.4443
 1053SOL    HW2 4601   6.971   7.240   2.486  0.3004 -2.1989 -0.8335
 1054SOL     OW 4602   0.505   6.196   9.547 -0.6743 -0.2658 -0.0470
 1054SOL    HW1 4603   0.596   6.168   9.560 -1.7052 -2.7942  2.8921
 1054SOL    HW2 4604   0.493   6.266   9.612 -0.6870  0.5805 -0.9365
 1055SOL     OW 4605   4.369   7.800   1.984  0.1910  0.3331  0.2588
 1055SOL    HW1 4606   4.456   7.806   2.021 -0.5864  0.8725  2.0967
 1055SOL    HW2 4607   4.315   7.765   2.055 -0.8973 -1.0490 -1.1738
 1056SOL     OW 4608   3.253   3.043  12.379 -0.3823 -0.0449  0.2483
 1056SOL    HW1 4609   3.306   3.123  12.385  1.5399 -1.1604 -0.8747
 1056SOL    HW2 4610   3.203   3.053  12.298 -0.7529  0.3312  0.5159
 1057SOL     OW 4611   4.183   4.958   4.580  0.0949  0.2801  0.0684
 1057SOL    HW1 4612   4.221   5.033   4.536 -0.3747  0.7404  0.4384
 1057SOL    HW2 4613   4.136   4.910   4.511 -0.0604  0.6225 -0.0659
 1058SOL     OW 4614   3.131   7.245   3.339 -0.1238  0.2437  0.7144
 1058SOL    HW1 4615   3.193   7.277   3.274  0.3359 -0.9892  0.5163
 1058SOL    HW2 4616   3.118   7.153   3.317 -1.1549  0.1908  1.4436
 1059SOL     OW 4617   0.847   4.452   0.085 -0.0002 -0.0237 -0.0548
 1059SOL    HW1 4618   0.864   4.367   0.043 -1.6726 -0.0310 -0.7757
 1059SOL    HW2 4619   0.767   4.484   0.043 -0.2297  1.2248  1.2666
 1060SOL     OW 4620   0.581   5.153  11.076 -0.5448 -0.0812  0.5746
 1060SOL    HW1 4621   0.616   5.196  11.153  0.2964 -0.0508  0.1815
 1060SOL    HW2 4622   0.547   5.224  11.021  2.4723  0.3447 -0.9147
 1061SOL     OW 4623   6.758   5.167   1.057 -0.4434  0.0615 -0.4373
 1061SOL    HW1 4624   6.834   5.219   1.083 -1.7415  1.4075  0.8510
 1061SOL    HW2 4625   6.684   5.227   1.063 -1.5593 -1.0260 -2.3112
 1062SOL     OW 4626   6.112   0.791   2.319  0.1307  0.4352 -0.4398
 1062SOL    HW1 4627   6.094   0.804   2.412 -0.5390 -0.8588 -0.3639
 1062SOL    HW2 4628   6.175   0.718   2.316 -0.0275  0.3103 -1.0040
 1063SOL     OW 4629   4.572   2.548   3.399  0.5453  0.0243 -0.5225
 1063SOL    HW1 4630   4.664   2.570   3.414 -0.2107  1.5594  3.0021
 1063SOL    HW2 4631   4.541   2.614   3.337  1.7071 -0.2250 -1.3832
 1064SOL     OW 4632   1.754   4.506   6.320  0.4773 -0.1391 -0.0282
 1064SOL    HW1 4633   1.844   4.535   6.334  0.6048 -1.1324  1.5169
 1064SOL    HW2 4634   1.761   4.412   6.304 -0.1226  0.1730 -2.5165
 1065SOL     OW 4635   5.674   1.691   1.085 -0.2386 -0.4700 -0.1236
 1065SOL    HW1 4636   5.655   1.785   1.091  0.4547 -0.2632 -0.9193
 1065SOL    HW2 4637   5.632   1.653   1.162  0.2967  0.6346  0.7516
 1066SOL     OW 4638   4.941   1.640   8.742  0.0296 -0.2740 -0.2274
 1066SOL    HW1 4639   4.884   1.586   8.797  1.2013 -1.1905  0.1273
 1066SOL    HW2 4640   5.001   1.682   8.804 -0.8179  1.4642 -0.4943
 1067SOL     OW 4641   4.167   6.077  10.649 -0.2189 -0.4735 -0.2107
 1067SOL    HW1 4642   4.187   6.164  10.682  1.9599 -0.8171 -0.5287
 1067SOL    HW2 4643   4.127   6.092  10.563 -1.1239  0.2302  0.3184
 1068SOL     OW 4644   6.004   2.948   8.559 -0.2373  0.3319  0.1657
 1068SOL    HW1 4645   5.921   2.981   8.523  0.0355 -0.0187 -0.8195
 1068SOL    HW2 4646   6.003   2.976   8.650 -1.4565  0.3168  0.1775
 1069SOL     OW 4647   1.145   0.249   1.078  0.3328  0.0568 -0.1271
 1069SOL    HW1 4648   1.137   0.338   1.110 -0.1435  0.5435 -1.5319
 1069SOL    HW2 4649   1.223   0.250   1.023  0.9936 -0.7010  0.7461
 1070SOL     OW 4650   1.574   7.441   7.360 -0.1432  0.4070  0.1998
 1070SOL    HW1 4651   1.568   7.350   7.331 -0.8121  0.4508  0.1958
 1070SOL    HW2 4652   1.627   7.484   7.292  0.0517  0.0536  0.1255
 1071SOL     OW 4653   0.654   0.601   2.918 -0.0418 -0.2484 -0.1877
 1071SOL    HW1 4654   0.697   0.592   2.833 -1.2547 -1.7944 -0.6686
 1071SOL    HW2 4655   0.680   0.523   2.967 -1.8152 -0.9601 -0.3007
 1072SOL     OW 4656   7.382   7.836   2.029  0.0802  0.4355 -0.0884
 1072SOL    HW1 4657   7.375   7.763   1.967  1.8233 -1.3681  1.6826
 1072SOL    HW2 4658   7.458   7.814   2.083  0.4520  3.4257  0.7791
 1073SOL     OW 4659   7.311   1.570   0.812 -0.7086  0.1350 -0.5619
 1073SOL    HW1 4660   7.335   1.583   0.720 -2.5207  0.1622 -1.0706
 1073SOL    HW2 4661   7.347   1.484   0.834 -0.2881  0.1120 -1.3094
 1074SOL     OW 4662   3.510   1.488   8.668  0.3190 -0.2892  0.4905
 1074SOL    HW1 4663   3.448   1.448   8.607  1.6070 -1.8137  0.1178
 1074SOL    HW2 4664   3.484   1.456   8.754  1.7387 -2.6284  0.1345
 1075SOL     OW 4665   5.734   6.297  10.461  0.2042 -0.0979 -0.1322
 1075SOL    HW1 4666   5.789   6.230  10.501 -0.4803  0.6645  2.2364
 1075SOL    HW2 4667   5.653   6.296  10.512 -0.9614  0.5923 -1.8668
 1076SOL     OW 4668   2.502   7.486   8.627 -1.2201  0.0290  0.2425
 1076SOL    HW1 4669   2.452   7.543   8.686 -0.1411  1.5020 -0.2161
 1076SOL    HW2 4670   2.492   7.525   8.541 -0.5517 -0.5492 -0.1102
 1077SOL     OW 4671   0.287   7.583   7.130  0.0316 -0.5123 -0.2262
 1077SOL    HW1 4672   0.237   7.532   7.067  1.3746 -1.0247 -0.9012
 1077SOL    HW2 4673   0.266   7.674   7.110 -0.7772 -0.7129 -0.3461
 1078SOL     OW 4674   7.296   3.300  10.112  0.3522 -0.0456  0.2985
 1078SOL    HW1 4675   7.206   3.290  10.143  1.0390 -0.7483  2.1760
 1078SOL    HW2 4676   7.305   3.234  10.043 -0.8668  0.7951 -0.7400
 1079SOL     OW 4677   0.233   7.413  10.514  0.3828 -0.7671 -0.2071
 1079SOL    HW1 4678   0.284   7.335  10.537 -1.6489 -2.3039 -0.6338
 1079SOL    HW2 4679   0.299   7.476  10.484  2.3319 -1.3934  2.4232
 1080SOL     OW 4680   7.679   1.344   5.386  0.2125 -0.0835  0.0198
 1080SOL    HW1 4681   7.595   1.352   5.431  0.0026 -0.6457 -0.2638
 1080SOL    HW2 4682   7.657   1.340   5.293  0.5119 -0.6870 -0.0336
 1081SOL     OW 4683   4.957   5.374   4.284  0.1354  0.3682  0.2098
 1081SOL    HW1 4684   4.912   5.439   4.338  0.2954 -0.0801  0.9043
 1081SOL    HW2 4685   4.891   5.307   4.266 -0.2754  1.1518 -1.2564
 1082SOL     OW 4686   1.517   1.867   1.909  0.9525  0.5641 -0.2194
 1082SOL    HW1 4687   1.556   1.947   1.945  0.3164  0.4104  0.8793
 1082SOL    HW2 4688   1.576   1.840   1.839  1.1543  2.0151 -0.6362
 1083SOL     OW 4689   5.573   0.931   2.786  0.8252  0.3720  0.5710
 1083SOL    HW1 4690   5.492   0.880   2.778  1.3115 -0.1118 -2.2378
 1083SOL    HW2 4691   5.544   1.019   2.807 -0.2928 -0.1877  1.4680
 1084SOL     OW 4692   2.352   1.804   6.227  0.4041 -0.2835 -0.3507
 1084SOL    HW1 4693   2.421   1.836   6.170  1.8039 -0.5279  1.1375
 1084SOL    HW2 4694   2.394   1.792   6.312 -1.7151  0.5997  0.9180
 1085SOL     OW 4695   3.558   3.689   2.063 -0.1618  0.5693 -0.3454
 1085SOL    HW1 4696   3.486   3.751   2.059 -0.6602 -0.0559 -2.3568
 1085SOL    HW2 4697   3.538   3.625   1.994  1.7806 -0.2110 -0.2381
 1086SOL     OW 4698   6.639   4.364   0.606  0.6056 -0.1393  0.8365
 1086SOL    HW1 4699   6.726   4.323   0.606  1.2836  1.2499  0.3783
 1086SOL    HW2 4700   6.584   4.303   0.557  1.2529 -1.1430  1.3123
 1087SOL     OW 4701   3.639   1.928   2.619  0.3415  0.0569 -0.2407
 1087SOL    HW1 4702   3.594   1.983   2.555 -0.6170 -0.3425  0.0722
 1087SOL    HW2 4703   3.681   1.991   2.679 -1.2656  0.4857  0.4869
 1088SOL     OW 4704   5.795   4.886   4.904  0.2587 -0.1092 -0.1464
 1088SOL    HW1 4705   5.725   4.950   4.891 -0.6342 -0.6884  1.5184
 1088SOL    HW2 4706   5.753   4.813   4.950  1.6170 -1.1830 -0.5493
 1089SOL     OW 4707   5.947   4.701   0.992 -0.0944 -0.3805 -0.2689
 1089SOL    HW1 4708   5.982   4.775   1.042 -0.9213 -0.0737 -0.1323
 1089SOL    HW2 4709   6.020   4.673   0.936  0.9838 -0.9685  1.3577
 1090SOL     OW 4710   4.814   2.470  11.658  0.2706 -0.0881  0.2307
 1090SOL    HW1 4711   4.833   2.388  11.614 -0.6785  0.5923 -1.5302
 1090SOL    HW2 4712   4.828   2.451  11.751  1.0224 -1.9402 -0.2176
 1091SOL     OW 4713   7.854   4.855   5.393  0.0123 -0.0120 -0.0443
 1091SOL    HW1 4714   7.879   4.836   5.302  0.1571 -0.2021  0.0362
 1091SOL    HW2 4715   7.810   4.940   5.388 -1.9922 -1.0088 -0.6480
 1092SOL     OW 4716   2.807   5.878   3.725  0.0612 -0.0743  0.6499
 1092SOL    HW1 4717   2.723   5.922   3.740 -0.1775 -0.5677  0.7896
 1092SOL    HW2 4718   2.851   5.932   3.660 -0.3010  0.2772  0.6914
 1093SOL     OW 4719   5.227   2.723   4.619 -0.9915 -0.5292 -0.4859
 1093SOL    HW1 4720   5.249   2.814   4.636  1.7417 -1.2168  0.2493
 1093SOL    HW2 4721   5.146   2.726   4.568 -0.5655  2.3151 -1.1409
 1094SOL     OW 4722   5.328   6.038   4.139 -0.4100 -0.5241  0.5881
 1094SOL    HW1 4723   5.306   6.120   4.183 -0.1316  0.5801 -1.2086
 1094SOL    HW2 4724   5.243   5.995   4.124 -0.8111  0.5750 -0.4874
 1095SOL     OW 4725   0.705   6.857   3.065  0.1996 -0.0386  0.0119
 1095SOL    HW1 4726   0.623   6.900   3.090 -0.2948 -0.8444 -0.2036
 1095SOL    HW2 4727   0.754   6.925   3.018 -0.0866  0.6232  0.6441
 1096SOL     OW 4728   0.169   6.634   1.432 -0.3966 -0.5757  0.1687
 1096SOL    HW1 4729   0.075   6.621   1.417 -0.3254  0.7229 -1.8204
 1096SOL    HW2 4730   0.208   6.623   1.345  1.3388 -1.2163  0.9825
 1097SOL     OW 4731   7.345   4.014   2.277  0.5907  0.1183 -0.2135
 1097SOL    HW1 4732   7.391   3.945   2.230  1.2058 -0.6576  1.4609
 1097SOL    HW2 4733   7.411   4.084   2.285  1.0486 -0.4332  0.9609
 1098SOL     OW 4734   5.770   2.636   6.099 -0.3316  0.0509  0.5774
 1098SOL    HW1 4735   5.729   2.549   6.093  0.5821 -0.3750  0.3339
 1098SOL    HW2 4736   5.762   2.673   6.011 -1.6931  0.6849  0.9406
 1099SOL     OW 4737   2.843   5.649   1.921 -0.0649  0.6932 -0.1246
 1099SOL    HW1 4738   2.856   5.742   1.936  0.0064  0.6101  0.3491
 1099SOL    HW2 4739   2.765   5.644   1.867 -2.0596  0.8923  2.5146
 1100SOL     OW 4740   7.811   3.683  12.411  0.1764  0.1465  0.0785
 1100SOL    HW1 4741   7.751   3.741  12.365 -0.9717 -0.2791  0.9999
 1100SOL    HW2 4742   7.831   3.614  12.348 -0.5664  0.1183 -0.1303
 1101SOL     OW 4743   5.258   0.380   0.103  0.2538 -0.2919 -0.1350
 1101SOL    HW1 4744   5.232   0.289   0.090 -1.8358  0.4841 -2.0541
 1101SOL    HW2 4745   5.313   0.400   0.027 -0.2800  0.3331 -0.3750
 1102SOL     OW 4746   7.033   5.799   8.451  0.2765 -0.1495  0.0499
 1102SOL    HW1 4747   7.016   5.877   8.397 -0.5774  0.6632  1.4255
 1102SOL    HW2 4748   7.121   5.813   8.486 -0.0270  0.4401  0.6205
 1103SOL     OW 4749   5.377   5.355   6.384 -0.4833  0.0757  0.0974
 1103SOL    HW1 4750   5.336   5.403   6.312 -2.8833  0.0207  1.3095
 1103SOL    HW2 4751   5.350   5.264   6.371  0.0908 -0.1439  0.4018
 1104SOL     OW 4752   7.284   3.899   4.691  0.3429  0.3560  0.0521
 1104SOL    HW1 4753   7.341   3.823   4.701 -0.6991 -0.6380 -1.1833
 1104SOL    HW2 4754   7.200   3.862   4.664  0.4100  2.0524 -2.8268
 1105SOL     OW 4755   0.254   1.149   7.183 -0.3194 -0.4264  0.1475
 1105SOL    HW1 4756   0.178   1.156   7.240 -0.8916  0.7675 -0.7177
 1105SOL    HW2 4757   0.221   1.171   7.096  1.2884  1.7770  0.0016
 1106SOL     OW 4758   2.350   5.371  11.041  0.1081  0.0559 -0.3507
 1106SOL    HW1 4759   2.299   5.422  10.978  1.0605 -0.0436 -1.2226
 1106SOL    HW2 4760   2.365   5.287  10.997  0.9152  0.0401 -0.0578
 1107SOL     OW 4761   7.776   3.129   0.077  0.3089  0.0709  0.3986
 1107SOL    HW1 4762   7.767   3.037   0.102 -1.4383  0.0622 -0.1022
 1107SOL    HW2 4763   7.763   3.178   0.158  1.0252 -0.1104  0.6271
 1108SOL     OW 4764   7.443   1.799   3.629 -0.6866  0.4516 -0.2114
 1108SOL    HW1 4765   7.453   1.706   3.613  0.8003  0.4843  0.3445
 1108SOL    HW2 4766   7.423   1.837   3.543 -1.8165 -0.4109 -0.3513
 1109SOL     OW 4767   4.388   2.405   4.045  0.0879  0.1036  0.3813
 1109SOL    HW1 4768   4.339   2.485   4.029  0.9764  0.5688 -0.0625
 1109SOL    HW2 4769   4.332   2.354   4.104 -1.8399 -0.2678 -1.6243
 1110SOL     OW 4770   6.155   1.773   9.930 -0.4590 -0.0666 -0.6433
 1110SOL    HW1 4771   6.107   1.837   9.983  0.2334  1.0356 -1.3229
 1110SOL    HW2 4772   6.129   1.688   9.966 -1.7016  0.5704  0.0199
 1111SOL     OW 4773   5.382   2.909   1.515 -0.9003 -0.4671  0.1569
 1111SOL    HW1 4774   5.324   2.845   1.475 -0.9849 -0.5033  0.3379
 1111SOL    HW2 4775   5.411   2.869   1.597 -1.1863 -0.1578  0.4147
 1112SOL     OW 4776   7.342   4.828  11.334 -0.2214 -0.2269  0.4743
 1112SOL    HW1 4777   7.267   4.807  11.390 -0.0581 -2.0531  0.0823
 1112SOL    HW2 4778   7.344   4.757  11.270  1.3065  0.2846 -0.0763
 1113SOL     OW 4779   7.143   0.341   4.216  0.5949 -0.1465  0.1887
 1113SOL    HW1 4780   7.163   0.398   4.290  1.5772 -0.3944  0.1349
 1113SOL    HW2 4781   7.049   0.324   4.223  0.2870  1.4463  0.2188
 1114SOL     OW 4782   2.877   4.047  10.774 -0.5656 -0.0161  0.1183
 1114SOL    HW1 4783   2.888   3.954  10.794  1.6163  0.2945  0.6040
 1114SOL    HW2 4784   2.807   4.075  10.832  0.1020 -0.9541  1.4485
 1115SOL     OW 4785   7.964   1.948   7.844 -0.0489 -0.2914  0.3697
 1115SOL    HW1 4786   8.037   1.958   7.905  2.0087  1.6715 -2.1198
 1115SOL    HW2 4787   7.929   2.037   7.834 -0.9274 -0.7210 -0.5797
 1116SOL     OW 4788   6.444   2.069  10.563 -0.8721 -0.1081 -0.4261
 1116SOL    HW1 4789   6.503   1.998  10.536 -2.1888 -1.2765 -0.2964
 1116SOL    HW2 4790   6.438   2.061  10.658 -1.8462 -0.4892 -0.5156
 1117SOL     OW 4791   7.830   4.112   3.235  0.2851 -0.3289  0.1097
 1117SOL    HW1 4792   7.844   4.124   3.141 -0.1184  0.1695  0.1040
 1117SOL    HW2 4793   7.838   4.018   3.249  0.1411 -0.4328 -0.4634
 1118SOL     OW 4794   0.681   4.718  12.409 -0.2827  0.4180  0.5549
 1118SOL    HW1 4795   0.732   4.743  12.487 -0.6757  0.9723  0.6410
 1118SOL    HW2 4796   0.649   4.630  12.429  0.5134  0.1213  0.5614
 1119SOL     OW 4797   3.224   4.319   0.683  0.4989  0.4684 -0.5853
 1119SOL    HW1 4798   3.190   4.253   0.622  0.7993 -0.7172  0.4998
 1119SOL    HW2 4799   3.154   4.331   0.747  0.1300  1.8137 -1.1948
 1120SOL     OW 4800   5.316   7.894   0.526 -0.1112 -0.4953  0.3293
 1120SOL    HW1 4801   5.273   7.819   0.487  0.1701 -1.1679  1.2868
 1120SOL    HW2 4802   5.332   7.954   0.453  0.1882 -1.6199 -0.5389
 1121SOL     OW 4803   4.083   0.143   4.869 -0.4974  0.1459 -0.2270
 1121SOL    HW1 4804   4.004   0.196   4.865 -0.6460 -0.0926 -0.5822
 1121SOL    HW2 4805   4.151   0.198   4.830 -0.4310  0.4487  0.3176
 1122SOL     OW 4806   5.229   3.911   0.754  0.1410 -0.1941 -0.1328
 1122SOL    HW1 4807   5.308   3.863   0.731 -0.7624 -1.1512 -1.3480
 1122SOL    HW2 4808   5.167   3.844   0.780 -0.5665  0.4700 -0.0772
 1123SOL     OW 4809   4.120   1.144   7.714  0.6288  0.9956  0.0506
 1123SOL    HW1 4810   4.165   1.189   7.642  1.2738 -1.5427 -1.2629
 1123SOL    HW2 4811   4.177   1.071   7.735 -1.5415 -0.7537  0.2410
 1124SOL     OW 4812   1.684   6.220   5.981 -0.1093  0.4676 -0.2982
 1124SOL    HW1 4813   1.618   6.209   6.049 -1.1157  0.9921 -1.1564
 1124SOL    HW2 4814   1.724   6.305   6.000  1.0809 -0.3097  0.8295
 1125SOL     OW 4815   3.213   6.427   7.300 -0.6343  0.0290  0.4440
 1125SOL    HW1 4816   3.297   6.387   7.278 -0.6908  0.8467 -1.4992
 1125SOL    HW2 4817   3.217   6.441   7.395  1.2737 -0.2575  0.4516
 1126SOL     OW 4818   6.464   6.647   4.747  0.4368  0.1197 -0.4814
 1126SOL    HW1 4819   6.428   6.582   4.686  0.3446 -1.1051  0.8467
 1126SOL    HW2 4820   6.387   6.684   4.790  0.5597  0.2692 -0.3910
 1127SOL     OW 4821   6.080   7.904   9.166 -0.1496  0.1974 -0.6261
 1127SOL    HW1 4822   5.985   7.901   9.154 -0.1237 -3.1577 -0.8479
 1127SOL    HW2 4823   6.109   7.977   9.112 -2.4373  0.2666 -1.8648
 1128SOL     OW 4824   3.117   5.056  11.114  0.4356  0.0286 -0.2450
 1128SOL    HW1 4825   3.138   5.148  11.104 -0.8927  0.4775  0.8136
 1128SOL    HW2 4826   3.031   5.055  11.156  0.0043 -1.6954 -1.0747
 1129SOL     OW 4827   6.513   3.450   9.410  0.4542 -0.1105 -0.1930
 1129SOL    HW1 4828   6.525   3.540   9.439 -1.3888  0.5281 -1.2692
 1129SOL    HW2 4829   6.513   3.399   9.491  1.8815  0.7775  0.4009
 1130SOL     OW 4830   6.661   7.734   1.312  0.1332  0.2205  0.1189
 1130SOL    HW1 4831   6.588   7.693   1.359 -1.3898  1.0745 -1.3780
 1130SOL    HW2 4832   6.646   7.828   1.323  0.9389  0.4107 -0.3355
 1131SOL     OW 4833   4.088   3.086   1.024 -0.2532 -0.6317 -0.1917
 1131SOL    HW1 4834   4.183   3.082   1.035 -0.3379 -1.1614  0.3404
 1131SOL    HW2 4835   4.054   3.013   1.075 -0.8889 -1.0020 -1.1186
 1132SOL     OW 4836   0.965   7.950  11.123 -0.1386 -0.0771  0.4621
 1132SOL    HW1 4837   0.916   7.876  11.158 -1.7179 -0.1749 -1.7776
 1132SOL    HW2 4838   1.050   7.913  11.097 -0.8358 -1.0723 -0.4535
 1133SOL     OW 4839   4.634   1.326   2.679 -0.1168  0.1561  0.2099
 1133SOL    HW1 4840   4.599   1.237   2.684 -0.7755  0.3464 -0.9380
 1133SOL    HW2 4841   4.597   1.370   2.756  0.6302 -0.6861  1.0836
 1134SOL     OW 4842   4.015   3.867  10.479  0.1994  0.2237  0.1979
 1134SOL    HW1 4843   4.069   3.946  10.476  1.3893 -0.5993 -1.1189
 1134SOL    HW2 4844   4.021   3.830  10.390 -1.4669 -0.6073  0.3872
 1135SOL     OW 4845   7.480   7.045   0.534  0.1006 -0.2337 -0.2673
 1135SOL    HW1 4846   7.396   7.064   0.492 -0.9315 -1.7916  0.9989
 1135SOL    HW2 4847   7.519   7.132   0.551 -0.4658  0.4817 -2.3084
 1136SOL     OW 4848   0.925   6.506   6.940 -0.4479 -0.2064 -0.3485
 1136SOL    HW1 4849   0.853   6.496   6.878 -0.5657 -0.5006 -0.1686
 1136SOL    HW2 4850   0.910   6.437   7.005 -2.0681  1.9199  1.7219
 1137SOL     OW 4851   7.836   7.379   4.667  0.3918  0.6252 -0.2004
 1137SOL    HW1 4852   7.756   7.380   4.614  0.6304 -0.0017 -0.5892
 1137SOL    HW2 4853   7.841   7.467   4.705 -0.6081  0.5961  0.0264
 1138SOL     OW 4854   5.199   6.224  10.546 -0.2413 -0.0198 -0.1342
 1138SOL    HW1 4855   5.133   6.223  10.476  0.2938  0.8137 -0.6640
 1138SOL    HW2 4856   5.203   6.133  10.576  1.4012 -1.0140 -2.9563
 1139SOL     OW 4857   0.453   4.278  12.070 -0.1074 -0.5458  0.2263
 1139SOL    HW1 4858   0.426   4.270  11.979 -0.2706  3.5747 -0.2987
 1139SOL    HW2 4859   0.541   4.241  12.073 -0.4172 -1.5013 -1.3505
 1140SOL     OW 4860   0.210   4.048   5.961 -0.3885  0.1050 -0.2968
 1140SOL    HW1 4861   0.205   4.034   5.866 -0.2203  1.8396 -0.6090
 1140SOL    HW2 4862   0.280   4.113   5.971 -1.4810  1.1459  0.8446
 1141SOL     OW 4863   3.519   5.811   8.130  0.7382 -0.5401  0.0104
 1141SOL    HW1 4864   3.478   5.871   8.192  0.0845 -1.5191  0.5491
 1141SOL    HW2 4865   3.493   5.843   8.044  0.0397 -0.3160  0.3026
 1142SOL     OW 4866   0.649   7.620  10.647 -0.0153 -0.3314 -0.1918
 1142SOL    HW1 4867   0.559   7.643  10.623 -0.1925 -0.1907  0.5765
 1142SOL    HW2 4868   0.642   7.531  10.681  0.2529 -0.5820 -0.7897
 1143SOL     OW 4869   5.468   7.690   2.095  0.6518  0.2900  0.5208
 1143SOL    HW1 4870   5.456   7.627   2.024 -2.4203 -0.3040  1.4547
 1143SOL    HW2 4871   5.472   7.637   2.174 -1.1383  1.1506  1.2428
 1144SOL     OW 4872   0.752   6.872   6.300  0.3456 -0.1882 -0.8514
 1144SOL    HW1 4873   0.723   6.957   6.268  1.3901  0.5207  0.0399
 1144SOL    HW2 4874   0.677   6.839   6.351  0.2396  0.5643 -0.5124
 1145SOL     OW 4875   6.148   0.982   7.706 -0.0886  0.2416 -0.4797
 1145SOL    HW1 4876   6.207   1.056   7.721  0.6229 -0.1548 -1.2497
 1145SOL    HW2 4877   6.060   1.020   7.711  0.1625  0.6571  1.7313
 1146SOL     OW 4878   3.895   3.462   4.668 -0.5003 -0.3144 -0.3262
 1146SOL    HW1 4879   3.978   3.438   4.708 -0.8373  0.0153  0.5947
 1146SOL    HW2 4880   3.894   3.558   4.670 -0.9432 -0.3169 -0.2343
 1147SOL     OW 4881   1.284   4.844   0.958  0.1877 -0.3642 -0.3724
 1147SOL    HW1 4882   1.314   4.932   0.980 -1.2018 -0.1490  0.7483
 1147SOL    HW2 4883   1.210   4.859   0.900  0.7941 -0.8496 -1.2978
 1148SOL     OW 4884   7.079   7.125  11.774  0.0957  0.4290  0.2912
 1148SOL    HW1 4885   7.033   7.086  11.849  0.0953  0.0989  0.1209
 1148SOL    HW2 4886   7.144   7.059  11.750 -0.0674  0.4330 -0.1571
 1149SOL     OW 4887   5.402   2.368   9.247  0.6453  0.2744 -0.2402
 1149SOL    HW1 4888   5.330   2.409   9.295  0.6300 -1.2014  1.0603
 1149SOL    HW2 4889   5.455   2.442   9.218 -1.7318  1.4782 -1.9063
 1150SOL     OW 4890   1.951   7.388   6.903 -0.1463 -0.3268 -0.2248
 1150SOL    HW1 4891   2.031   7.438   6.917  0.8403 -1.6619 -0.8258
 1150SOL    HW2 4892   1.967   7.305   6.948 -1.4217 -0.4241  0.0992
 1151SOL     OW 4893   7.498   5.044   5.472 -0.6440 -0.2443  0.1223
 1151SOL    HW1 4894   7.482   4.954   5.446  1.5688 -1.1521  1.5696
 1151SOL    HW2 4895   7.592   5.056   5.458 -0.9154  1.9384 -0.2459
 1152SOL     OW 4896   5.300   6.714   3.488 -0.2908  0.6456 -0.1422
 1152SOL    HW1 4897   5.275   6.636   3.538 -0.2848  0.8503  0.1858
 1152SOL    HW2 4898   5.396   6.712   3.488 -0.2764  1.0301  0.4803
 1153SOL     OW 4899   7.538   0.927   8.775  0.2848  0.2955  0.0618
 1153SOL    HW1 4900   7.573   0.870   8.707 -0.4960 -1.1707  0.8373
 1153SOL    HW2 4901   7.443   0.919   8.767  0.1775  0.3631  1.1088
 1154SOL     OW 4902   1.390   3.273   6.130 -0.1419  0.6606  0.2449
 1154SOL    HW1 4903   1.461   3.303   6.072  0.9643 -1.4453  0.4018
 1154SOL    HW2 4904   1.343   3.353   6.153  0.6290  1.8320 -1.9000
 1155SOL     OW 4905   2.647   5.659   8.623 -0.6660 -0.0778  0.3161
 1155SOL    HW1 4906   2.674   5.570   8.600  2.0830  1.0211 -1.2918
 1155SOL    HW2 4907   2.555   5.652   8.646 -1.2217 -2.9308 -2.1958
 1156SOL     OW 4908   6.141   0.673  10.290 -0.2171  0.7130 -0.0567
 1156SOL    HW1 4909   6.168   0.747  10.344 -0.4372  0.5392  0.2948
 1156SOL    HW2 4910   6.046   0.667  10.303 -0.1640  0.2076  0.1230
 1157SOL     OW 4911   2.032   6.075   6.830 -0.2142 -0.6625  0.0577
 1157SOL    HW1 4912   2.031   6.087   6.925 -1.3423  0.6986 -0.0873
 1157SOL    HW2 4913   2.093   6.003   6.816  0.8207 -0.1898  1.7307
 1158SOL     OW 4914   7.051   2.653   3.366  0.0816 -0.5807 -0.0590
 1158SOL    HW1 4915   7.129   2.704   3.387 -0.3732 -0.8195  2.5876
 1158SOL    HW2 4916   6.980   2.718   3.366  0.0285 -0.6421 -0.5188
 1159SOL     OW 4917   3.615   7.723   6.379  0.4572 -0.0913  0.2716
 1159SOL    HW1 4918   3.627   7.757   6.468 -0.5615 -1.5583  0.9998
 1159SOL    HW2 4919   3.567   7.641   6.391 -0.1175 -0.0766 -1.6777
 1160SOL     OW 4920   0.855   0.355   9.545  0.1539  0.3956 -0.3114
 1160SOL    HW1 4921   0.930   0.350   9.604  0.2085 -0.1988 -0.4249
 1160SOL    HW2 4922   0.829   0.448   9.547  1.0728  0.6686 -0.5063
 1161SOL     OW 4923   7.243   4.714   3.804 -0.2252  0.9529 -0.3320
 1161SOL    HW1 4924   7.186   4.790   3.814 -3.6720 -1.3922 -0.5337
 1161SOL    HW2 4925   7.194   4.642   3.844  2.4875 -1.3726 -0.8697
 1162SOL     OW 4926   5.652   1.235   7.196  0.3740 -0.1617 -0.9444
 1162SOL    HW1 4927   5.737   1.202   7.225  0.4851 -0.4446 -1.5770
 1162SOL    HW2 4928   5.601   1.243   7.276  1.3569  1.0874 -0.3938
 1163SOL     OW 4929   4.968   7.051   2.295  0.2419 -0.0335 -0.4188
 1163SOL    HW1 4930   5.008   7.138   2.302  1.6989 -0.7699  1.0538
 1163SOL    HW2 4931   5.017   6.997   2.357 -1.6236 -1.5623 -0.1943
 1164SOL     OW 4932   0.436   0.001   2.112  0.6129 -0.1077 -0.2190
 1164SOL    HW1 4933   0.386   0.082   2.119  1.3495  0.2658  0.9779
 1164SOL    HW2 4934   0.369  -0.066   2.095  0.1077  0.8624 -2.4399
 1165SOL     OW 4935   5.834   5.002  10.956  0.8982  0.1678 -0.2521
 1165SOL    HW1 4936   5.809   4.914  10.930  2.5936 -0.4216 -0.0369
 1165SOL    HW2 4937   5.834   5.000  11.052  1.1399  0.3253 -0.2469
 1166SOL     OW 4938   7.524   6.431   0.084  0.2748 -0.0727  0.6603
 1166SOL    HW1 4939   7.601   6.405   0.033  0.1659 -2.6862  1.6975
 1166SOL    HW2 4940   7.545   6.405   0.174 -1.9997 -1.4030  0.8780
 1167SOL     OW 4941   7.683   4.708   7.929 -0.2676  0.0541 -0.2142
 1167SOL    HW1 4942   7.664   4.737   7.839  1.1923  0.0633 -0.5589
 1167SOL    HW2 4943   7.744   4.635   7.917 -2.2867 -1.9016  0.7088
 1168SOL     OW 4944   7.156   1.981  11.717  1.0402  0.0633 -0.1086
 1168SOL    HW1 4945   7.089   2.042  11.688  1.7354  1.0161  0.2260
 1168SOL    HW2 4946   7.115   1.895  11.709 -0.2583  0.6237  0.2214
 1169SOL     OW 4947   7.007   7.355   7.442  0.1402  0.1843 -0.7822
 1169SOL    HW1 4948   6.957   7.402   7.509 -0.0818  0.8341 -1.3978
 1169SOL    HW2 4949   6.941   7.321   7.382  0.3969  0.6694 -1.3534
 1170SOL     OW 4950   1.329   2.683   2.464 -0.0933  0.4553  0.0721
 1170SOL    HW1 4951   1.338   2.628   2.386  1.4471  0.5383  0.1614
 1170SOL    HW2 4952   1.396   2.750   2.454 -1.0625  1.5532  0.6193
 1171SOL     OW 4953   2.314   5.651   1.566  0.0859  0.7622  0.1710
 1171SOL    HW1 4954   2.364   5.587   1.516 -0.6456  0.2625  0.0782
 1171SOL    HW2 4955   2.282   5.603   1.642 -0.9608  0.8586 -0.1993
 1172SOL     OW 4956   3.415   6.070   5.216  0.1372  0.2459 -0.3228
 1172SOL    HW1 4957   3.481   6.137   5.197  0.9972 -0.6204 -0.4717
 1172SOL    HW2 4958   3.333   6.119   5.224  0.8167  1.3662  0.0347
 1173SOL     OW 4959   4.203   3.136   3.497 -0.3064  0.3762  0.4618
 1173SOL    HW1 4960   4.221   3.094   3.581 -0.4122 -1.3398 -0.3328
 1173SOL    HW2 4961   4.259   3.214   3.496  2.5897 -1.5495  0.5874
 1174SOL     OW 4962   6.894   5.187   2.165  0.6559  0.1566 -0.3105
 1174SOL    HW1 4963   6.809   5.197   2.121 -1.1880 -0.4211  2.8002
 1174SOL    HW2 4964   6.930   5.106   2.127  1.0957  1.6348 -3.3988
 1175SOL     OW 4965   1.666   7.288  11.311  0.0887 -0.2269  0.2553
 1175SOL    HW1 4966   1.664   7.193  11.324 -0.2362 -0.1395  0.8585
 1175SOL    HW2 4967   1.635   7.300  11.221 -1.7900 -0.5904  0.7931
 1176SOL     OW 4968   2.205   2.403   7.715 -0.8515  0.1264 -0.1167
 1176SOL    HW1 4969   2.214   2.497   7.731 -1.5411  0.2021 -0.1221
 1176SOL    HW2 4970   2.208   2.395   7.620 -2.6016  0.3770 -0.2373
 1177SOL     OW 4971   1.636   5.787   1.363 -0.1709  0.2177 -0.3083
 1177SOL    HW1 4972   1.580   5.831   1.428 -1.2291  0.9924 -1.6980
 1177SOL    HW2 4973   1.700   5.854   1.338 -0.4634  0.3004 -0.8602
 1178SOL     OW 4974   2.615   0.435  10.317 -0.5508  0.1121  0.3196
 1178SOL    HW1 4975   2.576   0.392  10.242  0.4205  1.1419 -0.8293
 1178SOL    HW2 4976   2.546   0.435  10.384 -1.3261 -1.0944 -0.4455
 1179SOL     OW 4977   1.597   7.316   8.264 -0.3318 -0.6664 -0.0701
 1179SOL    HW1 4978   1.574   7.299   8.173  2.3379  0.5347 -1.0759
 1179SOL    HW2 4979   1.526   7.277   8.315 -1.3677 -2.3036 -2.5992
 1180SOL     OW 4980   7.698   2.579   2.122  0.4823 -0.2224  0.2456
 1180SOL    HW1 4981   7.739   2.606   2.039 -0.2588  1.6255  0.4373
 1180SOL    HW2 4982   7.635   2.649   2.142 -1.1178 -1.8450  1.1422
 1181SOL     OW 4983   7.074   5.520  11.681  0.3749 -0.1502  0.0092
 1181SOL    HW1 4984   7.152   5.490  11.634  0.4295  0.3615 -0.2439
 1181SOL    HW2 4985   7.105   5.596  11.731  0.4391 -0.9872  1.3011
 1182SOL     OW 4986   3.898   3.929   4.407 -1.0715 -0.2756 -0.1120
 1182SOL    HW1 4987   3.871   3.939   4.316 -2.7583  0.5921  0.4333
 1182SOL    HW2 4988   3.856   4.002   4.453  0.9179  0.1551  1.1462
 1183SOL     OW 4989   1.804   3.594   1.956 -0.1677  0.2347 -0.4762
 1183SOL    HW1 4990   1.875   3.577   2.018 -0.3402 -0.4410 -0.4551
 1183SOL    HW2 4991   1.824   3.539   1.881 -0.0678  0.9031 -0.9516
 1184SOL     OW 4992   5.681   7.646   6.314  0.1615  0.7189  0.2685
 1184SOL    HW1 4993   5.621   7.712   6.280 -0.1076 -0.3514 -1.4399
 1184SOL    HW2 4994   5.734   7.621   6.238  0.8308 -0.4080  1.0879
 1185SOL     OW 4995   6.993   2.143   1.555  0.0211 -0.3136 -0.0050
 1185SOL    HW1 4996   7.002   2.048   1.562 -0.9651 -0.3545  0.8213
 1185SOL    HW2 4997   6.901   2.160   1.573  0.4271  0.9087  1.0765
 1186SOL     OW 4998   1.436   5.650   9.565 -0.2864  0.8024 -0.1165
 1186SOL    HW1 4999   1.490   5.621   9.491  0.5338  0.2517  0.6790
 1186SOL    HW2 5000   1.407   5.569   9.607 -2.7043  1.0283 -1.1416
 1187SOL     OW 5001   0.560   3.114  10.593 -0.5318  0.5095 -0.2145
 1187SOL    HW1 5002   0.583   3.189  10.647  1.5099  0.0631 -0.3511
 1187SOL    HW2 5003   0.465   3.105  10.601 -0.6271  2.2159  0.9307
 1188SOL     OW 5004   3.928   2.703  11.638 -0.1303  0.1070  0.5182
 1188SOL    HW1 5005   4.003   2.662  11.683  1.7351  0.1455 -2.3222
 1188SOL    HW2 5006   3.964   2.782  11.599 -1.6485  0.1033 -0.9827
 1189SOL     OW 5007   3.875   7.817   3.593 -0.8139  0.0789  0.1600
 1189SOL    HW1 5008   3.865   7.769   3.676 -0.4977 -0.8251 -0.3090
 1189SOL    HW2 5009   3.925   7.757   3.537 -0.8167  0.7795 -0.6063
 1190SOL     OW 5010   6.680   6.934  11.943 -0.4618  0.1094  0.4572
 1190SOL    HW1 5011   6.716   6.864  11.996  4.9557  1.4157 -0.8954
 1190SOL    HW2 5012   6.636   6.889  11.871 -0.1036 -1.7929  1.3561
 1191SOL     OW 5013   0.399   1.641   5.114  0.1955 -0.0111 -0.2657
 1191SOL    HW1 5014   0.402   1.548   5.095 -0.0450  0.2856 -1.9376
 1191SOL    HW2 5015   0.305   1.663   5.112  0.1588  0.0834  1.2346
 1192SOL     OW 5016   6.291   7.788   0.155 -0.3117  0.5876  0.2817
 1192SOL    HW1 5017   6.217   7.843   0.183  0.4601  1.8179 -0.0201
 1192SOL    HW2 5018   6.287   7.790   0.060  0.7137  1.5510  0.2374
 1193SOL     OW 5019   6.575   4.910   5.238  0.5287  0.0430  0.6075
 1193SOL    HW1 5020   6.518   4.889   5.313  0.0764 -0.4376  0.1361
 1193SOL    HW2 5021   6.534   4.866   5.164  1.8078 -0.7720  0.3517
 1194SOL     OW 5022   4.025   0.385  12.164  0.3158  0.1930  0.2593
 1194SOL    HW1 5023   3.975   0.311  12.198  0.6559 -0.0333  0.2668
 1194SOL    HW2 5024   3.969   0.421  12.095  0.7230 -0.8894 -0.6724
 1195SOL     OW 5025   3.036   5.811   5.111 -0.1442 -0.3623 -0.2270
 1195SOL    HW1 5026   2.962   5.757   5.137 -1.1498  0.9363 -0.2753
 1195SOL    HW2 5027   3.002   5.867   5.041  1.0681 -0.1953 -0.7135
 1196SOL     OW 5028   1.274   0.179   8.837 -0.1895 -0.0906  0.4427
 1196SOL    HW1 5029   1.353   0.231   8.824 -0.1555 -0.2664 -0.1025
 1196SOL    HW2 5030   1.252   0.190   8.930  1.9801 -2.1200  1.2848
 1197SOL     OW 5031   0.840   3.781   1.517  0.1563 -0.1077 -0.4470
 1197SOL    HW1 5032   0.923   3.824   1.496  1.5431 -2.0298  0.6766
 1197SOL    HW2 5033   0.847   3.760   1.610 -1.9210  0.3017 -0.1645
 1198SOL     OW 5034   2.915   6.964  11.173 -0.0470  0.0208  0.1035
 1198SOL    HW1 5035   2.909   7.007  11.258  1.8057  1.6789 -0.5076
 1198SOL    HW2 5036   3.008   6.973  11.149 -0.2626 -1.5532 -1.5215
 1199SOL     OW 5037   2.247   2.754   8.918 -0.1862 -0.2664 -0.8805
 1199SOL    HW1 5038   2.267   2.663   8.896  1.6047 -0.2166  0.3783
 1199SOL    HW2 5039   2.156   2.752   8.948 -0.4662 -1.4606 -1.7245
 1200SOL     OW 5040   0.595   1.658   3.269 -0.1452  0.0815  0.4488
 1200SOL    HW1 5041   0.669   1.716   3.287  0.1038 -0.1348  0.1369
 1200SOL    HW2 5042   0.612   1.580   3.323 -1.5802  1.1438  2.5538
 1201SOL     OW 5043   1.958   6.066   4.706  0.7580  0.4076 -0.0287
 1201SOL    HW1 5044   1.936   5.996   4.644  1.1953  1.6962 -1.6984
 1201SOL    HW2 5045   1.877   6.078   4.757  0.4248 -0.7438 -0.2462
 1202SOL     OW 5046   3.413   4.917   3.870 -0.0472 -0.4219 -0.2546
 1202SOL    HW1 5047   3.369   4.840   3.905  0.3319 -1.5117 -2.0188
 1202SOL    HW2 5048   3.501   4.914   3.909  0.7336 -2.2266 -1.9965
 1203SOL     OW 5049   4.627   5.926   2.654  0.0605  0.4653 -0.6385
 1203SOL    HW1 5050   4.720   5.921   2.631 -0.0303 -0.7384 -0.7843
 1203SOL    HW2 5051   4.626   5.921   2.750  0.1695  0.9360 -0.6111
 1204SOL     OW 5052   3.148   0.827  12.236  0.0104  0.1429 -0.1507
 1204SOL    HW1 5053   3.141   0.746  12.287 -0.3174  0.0787 -0.2928
 1204SOL    HW2 5054   3.069   0.876  12.259 -0.9219 -0.5360 -1.6926
 1205SOL     OW 5055   3.916   4.675   8.950 -0.0070  0.8704 -0.0881
 1205SOL    HW1 5056   3.887   4.766   8.947 -1.0341  0.5289 -1.0968
 1205SOL    HW2 5057   3.860   4.634   9.016  1.9496  1.4155  2.0703
 1206SOL     OW 5058   0.384   4.307   6.699 -0.2683  0.0916 -0.5528
 1206SOL    HW1 5059   0.457   4.368   6.694  0.6210 -1.0374 -2.4996
 1206SOL    HW2 5060   0.390   4.255   6.619 -2.3156 -1.0622 -0.0444
 1207SOL     OW 5061   3.574   2.121   7.168  0.2604  0.3180  0.0792
 1207SOL    HW1 5062   3.557   2.204   7.122 -0.3702 -0.5465 -1.2981
 1207SOL    HW2 5063   3.634   2.074   7.110  1.2651  0.1094  1.2407
 1208SOL     OW 5064   7.732   6.455   7.111  0.5213  0.6185 -0.3485
 1208SOL    HW1 5065   7.747   6.547   7.133 -0.7132  0.4916  1.1335
 1208SOL    HW2 5066   7.756   6.407   7.190 -1.5144 -0.0827 -0.0958
 1209SOL     OW 5067   6.944   1.006   2.021 -0.3889 -0.6856  0.1728
 1209SOL    HW1 5068   6.926   1.082   2.077 -2.1927 -1.1379  0.2624
 1209SOL    HW2 5069   7.001   1.040   1.952 -1.0589  0.7322  0.2822
 1210SOL     OW 5070   4.803   1.881  11.565  0.6031 -0.2807 -0.4078
 1210SOL    HW1 5071   4.740   1.944  11.530 -1.2862 -1.8743 -0.0783
 1210SOL    HW2 5072   4.751   1.825  11.623  2.3348 -1.7099 -0.1335
 1211SOL     OW 5073   5.539   5.713  11.029 -0.0035 -0.4086  0.2087
 1211SOL    HW1 5074   5.445   5.729  11.023 -0.2447 -2.0274 -0.9386
 1211SOL    HW2 5075   5.547   5.629  11.074  1.0101  0.5281  1.9144
 1212SOL     OW 5076   0.624   7.694   0.077 -0.1833  0.0155 -0.2302
 1212SOL    HW1 5077   0.694   7.758   0.090  2.0803 -2.2427 -0.6274
 1212SOL    HW2 5078   0.648   7.620   0.132 -1.2681 -1.5917 -1.8149
 1213SOL     OW 5079   7.246   5.398  11.466 -0.3522 -0.5524  0.3787
 1213SOL    HW1 5080   7.245   5.305  11.488 -1.8332  0.0119  3.0683
 1213SOL    HW2 5081   7.323   5.433  11.510  0.3011 -0.5024 -0.7720
 1214SOL     OW 5082   7.621   4.729   8.722  0.3873  0.4008 -0.3396
 1214SOL    HW1 5083   7.685   4.742   8.791  1.1898 -0.3724 -0.9130
 1214SOL    HW2 5084   7.549   4.789   8.743  0.9063  0.6355  0.7914
 1215SOL     OW 5085   7.423   1.578   6.050  0.3283  0.2702  0.1626
 1215SOL    HW1 5086   7.377   1.584   6.133  0.4034  0.5118  0.1870
 1215SOL    HW2 5087   7.511   1.610   6.068  0.0455  1.3050 -0.2441
 1216SOL     OW 5088   3.267   7.528   8.827 -0.0321 -0.1660  0.0388
 1216SOL    HW1 5089   3.276   7.517   8.732 -2.0552  0.0503 -0.2411
 1216SOL    HW2 5090   3.316   7.608   8.846  0.9811 -0.5878 -0.6946
 1217SOL     OW 5091   0.368   1.131   0.592  0.7953 -0.1381  0.0066
 1217SOL    HW1 5092   0.393   1.041   0.572  1.2635  0.2156 -1.0472
 1217SOL    HW2 5093   0.396   1.182   0.516 -0.2046  0.7769  0.2180
 1218SOL     OW 5094   3.948   2.764   2.745  0.1129  0.8318 -0.3029
 1218SOL    HW1 5095   4.032   2.733   2.713  0.2445 -0.2148  0.9797
 1218SOL    HW2 5096   3.900   2.789   2.666  1.1303  0.1903 -1.1455
 1219SOL     OW 5097   5.829   4.816   7.734  0.8288  0.1753  0.4161
 1219SOL    HW1 5098   5.845   4.725   7.759 -0.8952 -0.8487 -1.8684
 1219SOL    HW2 5099   5.908   4.842   7.687  0.2692 -1.1479 -1.3640
 1220SOL     OW 5100   5.439   3.428  12.330 -0.2104  0.9975  0.2999
 1220SOL    HW1 5101   5.471   3.366  12.265  1.3250  1.2312  0.7991
 1220SOL    HW2 5102   5.363   3.384  12.368  1.0425 -0.7843  0.8974
 1221SOL     OW 5103   4.836   6.256   7.688 -0.3160 -0.4854  0.9567
 1221SOL    HW1 5104   4.802   6.332   7.640 -1.5252 -0.9785  1.0123
 1221SOL    HW2 5105   4.923   6.242   7.651 -1.0828 -0.6693 -0.9079
 1222SOL     OW 5106   0.191   0.459   3.490  0.0790 -0.0350  0.4564
 1222SOL    HW1 5107   0.186   0.521   3.563 -1.0566  1.0975 -0.5294
 1222SOL    HW2 5108   0.100   0.452   3.459  0.0843 -2.6022  0.8322
 1223SOL     OW 5109   4.499   2.364   1.791  0.0212 -0.0529 -0.0427
 1223SOL    HW1 5110   4.454   2.288   1.753  0.3508  0.2405 -1.0677
 1223SOL    HW2 5111   4.528   2.335   1.877 -0.8832 -0.7030  0.0556
 1224SOL     OW 5112   2.933   5.751   7.295 -0.1505  0.1981  0.6114
 1224SOL    HW1 5113   3.016   5.785   7.329 -0.2168  0.7513  0.2424
 1224SOL    HW2 5114   2.956   5.710   7.212 -0.3931  1.3554 -0.0584
 1225SOL     OW 5115   0.579   2.629   6.354 -0.1008 -0.0119  0.2411
 1225SOL    HW1 5116   0.600   2.559   6.292  1.3412  0.8676 -0.3183
 1225SOL    HW2 5117   0.584   2.586   6.440  2.8261 -0.2504  0.0703
 1226SOL     OW 5118   6.149   1.472   7.953 -0.3449  0.3646 -0.5786
 1226SOL    HW1 5119   6.219   1.534   7.932 -1.5135  1.5602 -1.0553
 1226SOL    HW2 5120   6.068   1.517   7.929 -1.1830 -1.9690 -2.6622
 1227SOL     OW 5121   6.527   7.907   4.595  0.4398  0.3336 -0.3773
 1227SOL    HW1 5122   6.564   7.913   4.684  0.8014 -0.4323 -0.4647
 1227SOL    HW2 5123   6.550   7.990   4.554 -0.3499  0.9974  0.4735
 1228SOL     OW 5124   4.698   5.605   9.773 -0.3652  0.3114  0.2928
 1228SOL    HW1 5125   4.778   5.640   9.812 -0.3176  0.6017 -0.0640
 1228SOL    HW2 5126   4.727   5.561   9.693 -0.2047 -1.8742  1.4517
 1229SOL     OW 5127   6.558   6.929   4.863  0.4536 -0.1877  0.2184
 1229SOL    HW1 5128   6.607   7.009   4.848  0.4203 -0.3255 -0.7367
 1229SOL    HW2 5129   6.623   6.859   4.858  0.1671 -0.3863 -1.2383
 1230SOL     OW 5130   4.382   0.236   1.137  0.4209 -0.2506  0.6223
 1230SOL    HW1 5131   4.297   0.263   1.105 -0.7574 -1.3829  2.5835
 1230SOL    HW2 5132   4.442   0.305   1.107 -0.7668 -0.4437 -2.4838
 1231SOL     OW 5133   2.028   1.317   4.183  0.3279  0.0108  0.4310
 1231SOL    HW1 5134   2.010   1.236   4.134 -0.5436  1.1926 -1.3575
 1231SOL    HW2 5135   1.948   1.369   4.171  1.1933  1.4723  0.7841
 1232SOL     OW 5136   6.566   3.916   2.667 -0.5834  0.0435  0.1786
 1232SOL    HW1 5137   6.542   4.000   2.707 -0.1358 -0.4525  1.5698
 1232SOL    HW2 5138   6.484   3.866   2.666 -0.1900 -0.8027  2.7689
 1233SOL     OW 5139   3.684   1.685   7.170 -0.2107  0.2878 -0.8015
 1233SOL    HW1 5140   3.677   1.690   7.266  2.7789 -1.0509 -0.3887
 1233SOL    HW2 5141   3.727   1.602   7.154  1.3398  1.4321 -3.1515
 1234SOL     OW 5142   6.744   3.142   4.771  0.4902 -0.5658  0.5972
 1234SOL    HW1 5143   6.790   3.117   4.850  0.8425  0.3946  0.7106
 1234SOL    HW2 5144   6.733   3.237   4.778  1.2765 -0.3308 -0.8788
 1235SOL     OW 5145   4.625   0.999   6.100  0.1135  0.0771 -0.6642
 1235SOL    HW1 5146   4.651   0.907   6.107 -1.9044 -0.4512  0.7783
 1235SOL    HW2 5147   4.688   1.047   6.154 -0.6311 -0.9036  1.1655
 1236SOL     OW 5148   6.463   6.299   8.276  0.1903 -0.1026 -0.7007
 1236SOL    HW1 5149   6.421   6.378   8.243 -0.9810 -0.0395  0.8030
 1236SOL    HW2 5150   6.556   6.310   8.255 -0.1589  1.0032 -1.7554
 1237SOL     OW 5151   5.931   3.175   9.140 -0.0823 -0.0338  0.1426
 1237SOL    HW1 5152   5.941   3.185   9.235 -0.1946  0.3640  0.1120
 1237SOL    HW2 5153   6.020   3.183   9.105 -0.1940  1.1465  0.0936
 1238SOL     OW 5154   5.623   0.051  10.052  0.6482  0.2183  0.1549
 1238SOL    HW1 5155   5.605  -0.015  10.119  0.7334 -1.0279 -1.0193
 1238SOL    HW2 5156   5.537   0.081  10.024  0.6079  0.5763  0.6459
 1239SOL     OW 5157   2.549   3.390  10.506  0.1480  0.0492 -0.3076
 1239SOL    HW1 5158   2.636   3.429  10.492  0.5932 -1.1730 -1.1397
 1239SOL    HW2 5159   2.531   3.342  10.425 -0.2027 -1.7458  0.7867
 1240SOL     OW 5160   5.540   7.321  10.751  0.0845  0.1674 -0.4610
 1240SOL    HW1 5161   5.470   7.272  10.794 -0.0978  1.2655  0.5245
 1240SOL    HW2 5162   5.517   7.317  10.658 -0.2614 -1.0632 -0.3481
 1241SOL     OW 5163   6.931   1.668   3.483  0.5321 -0.1642 -0.1749
 1241SOL    HW1 5164   6.956   1.731   3.550 -2.9005  0.1728  0.9412
 1241SOL    HW2 5165   6.949   1.582   3.522  1.0965  0.0580  0.0622
 1242SOL     OW 5166   2.485   4.816   6.622 -0.2037  0.6017 -0.2218
 1242SOL    HW1 5167   2.431   4.814   6.701  0.9579  0.3654  0.5918
 1242SOL    HW2 5168   2.437   4.873   6.562 -2.4928 -1.2900 -0.3842
 1243SOL     OW 5169   6.633   7.101   0.048  0.0517  0.1917  0.4548
 1243SOL    HW1 5170   6.587   7.184   0.064 -3.1503 -1.2917 -0.4090
 1243SOL    HW2 5171   6.639   7.095  -0.047 -0.2954 -0.8482  0.4958
 1244SOL     OW 5172   3.485   0.952   3.258 -0.3043  0.4902  0.2223
 1244SOL    HW1 5173   3.432   0.946   3.337 -0.5675  1.4404  0.1299
 1244SOL    HW2 5174   3.565   0.903   3.279 -1.1228 -0.8159  0.4160
 1245SOL     OW 5175   5.894   0.972   6.921  0.6366 -0.5172  0.0513
 1245SOL    HW1 5176   5.915   0.882   6.945 -0.0355 -0.5902  0.3701
 1245SOL    HW2 5177   5.801   0.982   6.943  0.6365  0.1662 -0.2422
 1246SOL     OW 5178   0.014   4.192   2.582  1.0643  0.3708  0.0816
 1246SOL    HW1 5179  -0.017   4.265   2.635 -0.5441 -1.2435  1.5071
 1246SOL    HW2 5180  -0.047   4.187   2.509  0.9236  0.2228  0.2072
 1247SOL     OW 5181   0.640   5.561   0.899  0.3368 -0.1220 -0.0955
 1247SOL    HW1 5182   0.649   5.652   0.870  0.0373 -0.1751 -0.3681
 1247SOL    HW2 5183   0.564   5.562   0.958  0.5281 -0.1381  0.1508
 1248SOL     OW 5184   6.281   4.017  10.800 -0.2839  0.3478  0.2452
 1248SOL    HW1 5185   6.336   3.940  10.782 -0.3097  0.9078 -2.6301
 1248SOL    HW2 5186   6.203   4.004  10.746 -1.1353  1.5404  1.1381
 1249SOL     OW 5187   3.009   7.471   9.868  0.5072  0.1637  0.3801
 1249SOL    HW1 5188   2.963   7.555   9.859  1.2697  0.5382 -0.1631
 1249SOL    HW2 5189   3.047   7.455   9.781 -1.4731 -1.8647 -0.2200
 1250SOL     OW 5190   6.589   4.929   1.703 -0.7698 -0.2080 -0.3390
 1250SOL    HW1 5191   6.665   4.953   1.649 -0.8845 -2.0789 -1.4316
 1250SOL    HW2 5192   6.627   4.889   1.781 -0.5285 -2.0947 -1.3376
 1251SOL     OW 5193   7.521   7.834   4.235 -0.7005  0.0355 -0.2248
 1251SOL    HW1 5194   7.583   7.850   4.164  0.4138 -1.4457  0.3636
 1251SOL    HW2 5195   7.521   7.739   4.246  0.3803  0.2861  2.7678
 1252SOL     OW 5196   7.342   0.238  11.043  0.0962  0.5578 -0.2313
 1252SOL    HW1 5197   7.289   0.196  10.975  0.6564  0.1042 -0.3955
 1252SOL    HW2 5198   7.324   0.332  11.033 -2.0690  0.3450  0.8879
 1253SOL     OW 5199   4.936   5.140   5.542 -0.1064 -0.1864 -0.0725
 1253SOL    HW1 5200   4.863   5.195   5.514 -0.6546  0.2974  2.0916
 1253SOL    HW2 5201   5.004   5.155   5.476 -1.1194  1.1877 -0.8549
 1254SOL     OW 5202   2.356   4.260   9.753  0.2504 -0.3790 -0.1465
 1254SOL    HW1 5203   2.315   4.173   9.757  0.7645 -0.8015 -2.4587
 1254SOL    HW2 5204   2.314   4.302   9.678  0.2419  1.2761  0.7530
 1255SOL     OW 5205   0.277   0.304   9.320 -0.2649 -0.3409 -0.0573
 1255SOL    HW1 5206   0.207   0.368   9.313 -0.5844 -0.7614 -0.8536
 1255SOL    HW2 5207   0.240   0.233   9.372 -0.1474 -0.2000  0.2222
 1256SOL     OW 5208   2.909   2.370   1.782 -0.7936  0.4699 -0.8944
 1256SOL    HW1 5209   2.825   2.335   1.750 -0.4962 -0.1629 -0.9965
 1256SOL    HW2 5210   2.884   2.441   1.841 -1.4124  0.0525 -0.6438
 1257SOL     OW 5211   0.068   3.346   0.814  0.4136  0.2410  0.0550
 1257SOL    HW1 5212   0.058   3.440   0.799  1.2416  0.3009 -0.1855
 1257SOL    HW2 5213   0.129   3.339   0.888 -0.1485 -0.1075  0.4989
 1258SOL     OW 5214   5.373   0.314  11.173  0.2074  0.0482  0.1835
 1258SOL    HW1 5215   5.392   0.405  11.151  2.6250 -0.8873 -2.1266
 1258SOL    HW2 5216   5.401   0.305  11.264  1.0619  1.3526  0.0720
 1259SOL     OW 5217   6.102   1.478   0.921  0.3589  0.4272 -0.6099
 1259SOL    HW1 5218   6.056   1.396   0.938 -0.5813  0.3845 -2.9294
 1259SOL    HW2 5219   6.044   1.546   0.955  0.5390  0.2053  0.1606
 1260SOL     OW 5220   5.160   7.511   2.968  0.8117  0.0723  0.0877
 1260SOL    HW1 5221   5.199   7.427   2.942  1.5070  0.0816  1.0448
 1260SOL    HW2 5222   5.235   7.565   2.995  0.4596  1.2814 -1.1956
 1261SOL     OW 5223   6.353   0.459   0.278  0.4027  0.0036 -0.4125
 1261SOL    HW1 5224   6.388   0.380   0.319  1.3276 -0.1814 -1.4728
 1261SOL    HW2 5225   6.424   0.488   0.220 -0.3448  0.9872 -0.8577
 1262SOL     OW 5226   3.011   7.126   2.922 -0.3361 -0.0435 -0.0663
 1262SOL    HW1 5227   2.990   7.077   2.843 -0.7224 -0.1915  0.1241
 1262SOL    HW2 5228   3.088   7.082   2.959  0.8492  0.9909 -1.2004
 1263SOL     OW 5229   1.267   4.606   0.605 -0.2305 -0.4145  0.4362
 1263SOL    HW1 5230   1.185   4.590   0.651 -0.3538 -2.3105 -0.3485
 1263SOL    HW2 5231   1.329   4.632   0.673 -1.5129  1.3244  1.0010
 1264SOL     OW 5232   5.893   5.378   6.730  0.3492 -0.1407  0.4170
 1264SOL    HW1 5233   5.951   5.386   6.654  0.7088 -0.2672  0.6766
 1264SOL    HW2 5234   5.896   5.285   6.752 -1.2006 -0.4718 -0.5394
 1265SOL     OW 5235   3.746   5.485   5.354 -0.1113  0.1975  0.2229
 1265SOL    HW1 5236   3.741   5.487   5.450  0.9892 -0.7357  0.3300
 1265SOL    HW2 5237   3.672   5.430   5.327 -1.1515  1.4521  0.4355
 1266SOL     OW 5238   3.871   3.866   5.200 -0.2926  0.0794 -0.2064
 1266SOL    HW1 5239   3.848   3.825   5.117 -1.3778  0.5593 -0.1702
 1266SOL    HW2 5240   3.964   3.848   5.212  0.2992  1.4394 -2.3544
 1267SOL     OW 5241   3.606   1.645   8.468  0.1067  0.1522  0.0892
 1267SOL    HW1 5242   3.588   1.603   8.552  0.5429  3.3376  1.9405
 1267SOL    HW2 5243   3.551   1.724   8.469  1.2040  1.0002 -1.9847
 1268SOL     OW 5244   3.110   6.474   7.573 -0.2167  0.0552 -0.0634
 1268SOL    HW1 5245   3.025   6.519   7.567  0.4333  1.3985  0.3738
 1268SOL    HW2 5246   3.129   6.472   7.666  0.5256  0.3580 -0.2048
 1269SOL     OW 5247   2.635   5.236   4.755 -0.1844 -0.8415  0.0741
 1269SOL    HW1 5248   2.681   5.157   4.730  0.9194 -0.4565  0.8251
 1269SOL    HW2 5249   2.700   5.289   4.802 -0.8109  0.6256 -0.6230
 1270SOL     OW 5250   6.054   6.403  11.302 -0.0079 -0.2343  0.1333
 1270SOL    HW1 5251   6.142   6.436  11.316  0.7502 -2.3793  0.9320
 1270SOL    HW2 5252   6.039   6.411  11.208  0.3543  1.6574  0.2100
 1271SOL     OW 5253   4.241   1.791   4.939 -0.1328  0.4916  0.0586
 1271SOL    HW1 5254   4.234   1.698   4.961  0.4244 -0.2420 -2.5709
 1271SOL    HW2 5255   4.320   1.821   4.985  0.1404 -0.5318  0.2734
 1272SOL     OW 5256   3.295   0.710   6.648 -0.3688 -0.1948 -0.0811
 1272SOL    HW1 5257   3.218   0.665   6.614 -0.7528 -0.0818  0.6192
 1272SOL    HW2 5258   3.267   0.801   6.658  0.4651  0.2838 -1.6905
 1273SOL     OW 5259   0.756   3.558   1.399 -0.1169  0.1534 -0.5093
 1273SOL    HW1 5260   0.796   3.642   1.421  0.9895 -0.6214  0.5778
 1273SOL    HW2 5261   0.821   3.493   1.425  0.4830 -1.0036 -4.3494
 1274SOL     OW 5262   0.515   4.775   3.124 -0.1933 -0.1536 -0.6947
 1274SOL    HW1 5263   0.496   4.864   3.152  0.3785 -0.3915  0.5016
 1274SOL    HW2 5264   0.446   4.754   3.061 -2.6849 -0.2356  1.8589
 1275SOL     OW 5265   4.341   4.332  12.165 -0.2231  0.1811  0.6001
 1275SOL    HW1 5266   4.335   4.247  12.122 -2.1220  0.2970  0.5487
 1275SOL    HW2 5267   4.381   4.314  12.250  3.3743 -0.0879 -0.9556
 1276SOL     OW 5268   7.731   6.212   6.382 -0.1850 -0.6989 -0.2716
 1276SOL    HW1 5269   7.701   6.143   6.323 -0.2616 -0.8599 -0.0456
 1276SOL    HW2 5270   7.776   6.166   6.452 -0.2893 -0.5238 -0.0873
 1277SOL     OW 5271   1.522   4.920  11.593 -0.4585 -0.0630 -0.1298
 1277SOL    HW1 5272   1.431   4.935  11.618 -0.6627  0.2188 -1.0303
 1277SOL    HW2 5273   1.535   4.826  11.604 -0.3608  0.1074  1.5904
 1278SOL     OW 5274   6.360   5.564   2.297 -0.2119 -0.0672  0.1746
 1278SOL    HW1 5275   6.295   5.550   2.228  0.1897  0.5825 -0.3566
 1278SOL    HW2 5276   6.444   5.569   2.250  0.1512 -0.2959  0.7841
 1279SOL     OW 5277   6.939   5.897   7.243  0.2715 -0.0070 -0.4353
 1279SOL    HW1 5278   6.955   5.888   7.337 -0.2011  0.3873 -0.3112
 1279SOL    HW2 5279   6.864   5.841   7.226  0.4899 -0.2443 -0.6198
 1280SOL     OW 5280   4.727   6.398  12.140 -0.0808 -0.3340  0.2477
 1280SOL    HW1 5281   4.702   6.317  12.184 -1.2412 -0.4452 -0.5508
 1280SOL    HW2 5282   4.770   6.450  12.207 -0.9467 -0.8730  1.2525
 1281SOL     OW 5283   2.423   1.951   6.772 -0.3623  0.7354  0.2798
 1281SOL    HW1 5284   2.378   1.867   6.767 -1.4314  1.2756  0.5429
 1281SOL    HW2 5285   2.513   1.932   6.744 -1.1077 -0.0821 -1.7799
 1282SOL     OW 5286   6.174   6.075   0.782  0.3198 -0.2514 -0.0928
 1282SOL    HW1 5287   6.224   6.014   0.837  0.5635  0.2651  0.2713
 1282SOL    HW2 5288   6.087   6.077   0.823  0.4329 -0.0444  0.1410
 1283SOL     OW 5289   3.075   6.549   3.290 -0.2356  0.0975 -0.2410
 1283SOL    HW1 5290   2.982   6.536   3.273 -0.8964  1.8404  1.5796
 1283SOL    HW2 5291   3.101   6.617   3.228 -0.0362 -0.6998 -1.0506
 1284SOL     OW 5292   0.956   0.325  11.539  0.1971 -0.0837  0.2228
 1284SOL    HW1 5293   0.884   0.377  11.576 -0.8963 -1.3765 -0.0322
 1284SOL    HW2 5294   0.918   0.283  11.462  1.5221 -0.0242 -0.4884
 1285SOL     OW 5295   5.937   6.487   9.352  0.4215  0.1708 -0.0071
 1285SOL    HW1 5296   5.915   6.489   9.259  0.6582  0.3656 -0.0599
 1285SOL    HW2 5297   6.019   6.438   9.356  0.4891  0.2902  0.0827
 1286SOL     OW 5298   5.028   2.456   0.881  0.0293  0.4971  0.2860
 1286SOL    HW1 5299   4.935   2.463   0.861  0.3427  0.7638 -1.1847
 1286SOL    HW2 5300   5.071   2.453   0.795  1.3187 -0.4228  0.9302
 1287SOL     OW 5301   2.727   1.418  10.777  0.1597 -0.0187  0.3165
 1287SOL    HW1 5302   2.711   1.335  10.731 -0.2733  0.6163 -0.7353
 1287SOL    HW2 5303   2.790   1.464  10.722  0.7244  0.1825  1.1181
 1288SOL     OW 5304   0.669   6.093   7.863  0.2571  0.2895  0.1144
 1288SOL    HW1 5305   0.692   6.174   7.818 -0.3446 -0.0665 -0.8573
 1288SOL    HW2 5306   0.695   6.108   7.954  1.0673  1.1919 -0.2483
 1289SOL     OW 5307   7.562   1.099   6.996 -0.1197 -0.3946 -0.9731
 1289SOL    HW1 5308   7.513   1.035   7.047  0.5013  0.3208  0.5808
 1289SOL    HW2 5309   7.497   1.138   6.938 -2.2629  2.4905  2.8549
 1290SOL     OW 5310   3.877   5.326   3.558  0.1692 -0.2646  0.1297
 1290SOL    HW1 5311   3.960   5.284   3.536  0.4178  0.0957  0.3530
 1290SOL    HW2 5312   3.901   5.418   3.573 -0.3188 -0.1013 -0.0956
 1291SOL     OW 5313   2.420   4.192   9.040 -0.0543 -0.1470 -0.2131
 1291SOL    HW1 5314   2.424   4.232   8.953 -1.0099 -1.8716 -1.0926
 1291SOL    HW2 5315   2.512   4.180   9.064  0.2251 -0.2554 -1.2742
 1292SOL     OW 5316   0.961   0.892   9.538 -0.3888  0.1968 -0.0084
 1292SOL    HW1 5317   1.000   0.810   9.567 -1.4833  0.0257  1.0205
 1292SOL    HW2 5318   1.004   0.911   9.454  1.5756 -0.1852  0.8683
 1293SOL     OW 5319   5.886   0.389   5.720  0.3399  0.6259 -0.0275
 1293SOL    HW1 5320   5.964   0.440   5.698  1.5949 -0.3932  1.7892
 1293SOL    HW2 5321   5.864   0.343   5.639  2.0517  0.4385 -0.4409
 1294SOL     OW 5322   1.050   0.419   5.240  0.4830  0.3102  0.0003
 1294SOL    HW1 5323   1.055   0.512   5.259 -2.0376 -0.0422  3.1091
 1294SOL    HW2 5324   1.086   0.411   5.151  0.7867  4.1666 -0.3882
 1295SOL     OW 5325   6.727   0.279   3.877 -0.0699  0.6844 -0.0733
 1295SOL    HW1 5326   6.707   0.222   3.951 -0.4029 -1.7626 -1.9391
 1295SOL    HW2 5327   6.645   0.324   3.858 -0.8501 -0.9459 -0.7604
 1296SOL     OW 5328   2.111   0.989   6.109  0.3750 -0.4858 -0.2127
 1296SOL    HW1 5329   2.143   0.899   6.107  1.3874 -0.1309 -0.2809
 1296SOL    HW2 5330   2.131   1.020   6.197  0.3964 -0.1976 -0.3183
 1297SOL     OW 5331   4.727   0.318   8.086  0.6624 -0.0562  0.0415
 1297SOL    HW1 5332   4.654   0.306   8.025  0.4221 -1.8971  0.6254
 1297SOL    HW2 5333   4.794   0.256   8.056  0.6525 -0.7891  1.4706
 1298SOL     OW 5334   7.508   3.066   6.142  0.5255  0.5581 -0.3507
 1298SOL    HW1 5335   7.500   3.155   6.176  0.5449  0.9718 -1.3886
 1298SOL    HW2 5336   7.444   3.063   6.070  0.2217 -0.3991 -0.0462
 1299SOL     OW 5337   5.248   0.607   5.516 -0.2683  0.5476 -0.3808
 1299SOL    HW1 5338   5.292   0.692   5.522  1.9696 -0.4638 -1.3440
 1299SOL    HW2 5339   5.308   0.546   5.558 -2.2237 -0.5038  1.0740
 1300SOL     OW 5340   3.900   1.538   6.263  0.7276 -0.2151  0.3310
 1300SOL    HW1 5341   3.888   1.631   6.243 -2.7550 -0.3191  1.3105
 1300SOL    HW2 5342   3.893   1.533   6.359 -0.3636 -1.5698  0.2106
 1301SOL     OW 5343   1.161   5.945  12.241 -0.1278 -0.2700 -0.5047
 1301SOL    HW1 5344   1.138   5.911  12.328 -1.8149  1.6275 -0.1175
 1301SOL    HW2 5345   1.077   5.971  12.203  0.8320  1.5398 -1.5286
 1302SOL     OW 5346   7.264   2.806   2.748 -0.2145  0.4477  0.4447
 1302SOL    HW1 5347   7.348   2.851   2.742  0.1686 -0.2409  0.5278
 1302SOL    HW2 5348   7.219   2.830   2.667  0.3636  0.2393  0.0479
 1303SOL     OW 5349   6.318   1.906   2.670  0.1166  0.2121  0.4299
 1303SOL    HW1 5350   6.370   1.961   2.727 -1.8556  0.1097  2.4795
 1303SOL    HW2 5351   6.230   1.944   2.674 -0.1758  0.0788 -2.4429
 1304SOL     OW 5352   0.423   6.220  10.164 -0.0667 -0.9254  0.1624
 1304SOL    HW1 5353   0.350   6.255  10.113  0.9317  2.3165  0.7078
 1304SOL    HW2 5354   0.395   6.132  10.189 -2.8029 -0.6432 -1.4992
 1305SOL     OW 5355   7.489   6.923  12.192  0.0434 -0.1348 -0.2508
 1305SOL    HW1 5356   7.530   6.888  12.271 -1.2071 -1.0635  0.0177
 1305SOL    HW2 5357   7.542   6.887  12.120  1.6343  1.3045  0.1311
 1306SOL     OW 5358   0.990   0.224   0.404 -0.0960 -0.1852  0.1188
 1306SOL    HW1 5359   0.943   0.183   0.477 -0.7349  0.5242  0.1187
 1306SOL    HW2 5360   0.921   0.249   0.342  0.0398  2.5478  0.9399
 1307SOL     OW 5361   4.593   1.117   4.399 -0.4197  0.2876  0.2070
 1307SOL    HW1 5362   4.609   1.101   4.306 -1.4306  0.1857  0.0428
 1307SOL    HW2 5363   4.647   1.193   4.420  0.6251 -0.3157 -0.1993
 1308SOL     OW 5364   2.782   3.531   8.718 -0.5146 -0.2082 -0.4852
 1308SOL    HW1 5365   2.842   3.579   8.661 -2.3544  1.4922 -1.0759
 1308SOL    HW2 5366   2.839   3.489   8.782  1.3502  0.7970 -1.4034
 1309SOL     OW 5367   2.693   0.615   0.258 -0.0019 -0.6170  0.1245
 1309SOL    HW1 5368   2.615   0.571   0.224 -0.6882  2.0665 -2.1471
 1309SOL    HW2 5369   2.766   0.573   0.212 -0.5547 -0.1803 -1.2236
 1310SOL     OW 5370   7.300   2.906   7.869  0.6898  0.4995  0.2811
 1310SOL    HW1 5371   7.229   2.898   7.933 -0.6531  0.6830 -1.1300
 1310SOL    HW2 5372   7.380   2.895   7.921 -0.3923 -1.2280  1.7038
 1311SOL     OW 5373   6.503   7.657  12.073  0.3022  0.0930 -0.2596
 1311SOL    HW1 5374   6.593   7.687  12.080  0.5110 -0.6139  0.2457
 1311SOL    HW2 5375   6.456   7.704  12.142 -0.3796  2.6547 -2.3157
 1312SOL     OW 5376   6.769   6.337   0.765  0.4468  0.1661 -0.2237
 1312SOL    HW1 5377   6.861   6.347   0.789  0.5480 -0.5327 -0.3028
 1312SOL    HW2 5378   6.734   6.427   0.765  1.3636  0.5348 -1.1510
 1313SOL     OW 5379   0.012   1.024   0.660 -0.1167 -0.6451  0.5965
 1313SOL    HW1 5380   0.060   1.025   0.743  0.6523  0.3289  0.1530
 1313SOL    HW2 5381   0.010   0.931   0.635 -1.7934 -1.1931  2.4877
 1314SOL     OW 5382   3.324   1.018   3.962  0.1012 -0.1543 -0.0794
 1314SOL    HW1 5383   3.229   1.014   3.970  0.3139 -1.6744  3.2827
 1314SOL    HW2 5384   3.350   0.929   3.940  0.8115 -0.1291  0.6151
 1315SOL     OW 5385   6.360   1.102   4.891 -0.6548  0.0381 -0.2027
 1315SOL    HW1 5386   6.299   1.151   4.836  0.5523  3.0077  0.9008
 1315SOL    HW2 5387   6.447   1.128   4.860  0.0638  1.3946  2.6317
 1316SOL     OW 5388   4.387   4.836   2.938 -0.3218  0.0511  0.4636
 1316SOL    HW1 5389   4.321   4.774   2.907 -1.3019  1.2767  0.0081
 1316SOL    HW2 5390   4.412   4.886   2.860  0.8319 -0.0975  0.7226
 1317SOL     OW 5391   5.522   2.944   7.000 -0.3310  0.3930 -0.1999
 1317SOL    HW1 5392   5.430   2.920   6.988 -0.3261  0.0547  0.3637
 1317SOL    HW2 5393   5.527   2.973   7.092  0.4801 -1.3447  0.3470
 1318SOL     OW 5394   4.720   4.705   5.653 -0.0369 -0.2511 -0.4923
 1318SOL    HW1 5395   4.736   4.794   5.687 -0.6663 -0.7501  1.2201
 1318SOL    HW2 5396   4.649   4.716   5.591 -0.7701  0.3369  0.4167
 1319SOL     OW 5397   5.396   3.395   6.080  0.2991  0.0602 -0.1801
 1319SOL    HW1 5398   5.323   3.451   6.053 -1.7364 -1.7544  1.2700
 1319SOL    HW2 5399   5.396   3.323   6.016  1.3479  0.4075 -0.6022
 1320SOL     OW 5400   3.297   0.826   9.012 -0.0131 -0.0204 -0.3290
 1320SOL    HW1 5401   3.297   0.756   8.946  1.1748  0.2459 -0.6465
 1320SOL    HW2 5402   3.289   0.780   9.096  0.6633 -0.5419 -0.5397
 1321SOL     OW 5403   4.695   6.035   4.512  0.5279 -0.3445  0.2321
 1321SOL    HW1 5404   4.616   6.020   4.459 -0.7594 -1.6219  2.3523
 1321SOL    HW2 5405   4.766   6.003   4.457 -0.7563 -1.7800 -0.6910
 1322SOL     OW 5406   3.655   0.560   9.348 -0.3956 -0.2709  0.2239
 1322SOL    HW1 5407   3.564   0.552   9.375 -0.7811  0.4375 -0.8054
 1322SOL    HW2 5408   3.700   0.600   9.422 -1.2847  1.0350  0.0751
 1323SOL     OW 5409   7.154   3.311   4.538  0.6887 -0.2816 -0.6370
 1323SOL    HW1 5410   7.199   3.243   4.489  0.6148 -0.1031 -0.9551
 1323SOL    HW2 5411   7.149   3.277   4.628  3.2716  0.5414 -0.0890
 1324SOL     OW 5412   1.477   4.686  11.931  0.2058  0.3126  0.3276
 1324SOL    HW1 5413   1.399   4.689  11.987  1.3653  0.6136  2.0183
 1324SOL    HW2 5414   1.527   4.612  11.964  1.1515  0.7905  0.0025
 1325SOL     OW 5415   0.683   5.337   4.491 -0.0789 -0.0673  0.0152
 1325SOL    HW1 5416   0.763   5.376   4.526  0.4376 -1.0423 -0.0384
 1325SOL    HW2 5417   0.622   5.410   4.480  0.9958  0.7729 -0.4629
 1326SOL     OW 5418   4.711   0.379   1.758  0.0853 -0.1630  0.1171
 1326SOL    HW1 5419   4.637   0.429   1.724 -0.0756 -0.8548 -0.5816
 1326SOL    HW2 5420   4.761   0.442   1.809 -0.5501  0.5080 -0.0682
 1327SOL     OW 5421   5.001   0.359   3.659 -0.5987 -0.2346 -1.0603
 1327SOL    HW1 5422   4.943   0.309   3.602  1.2758 -0.1294 -3.2236
 1327SOL    HW2 5423   4.979   0.451   3.641 -1.6257 -0.2015  0.2447
 1328SOL     OW 5424   5.808   0.735   2.727 -0.4690  0.0100  0.0486
 1328SOL    HW1 5425   5.763   0.816   2.751  0.6438  0.8868 -0.7305
 1328SOL    HW2 5426   5.750   0.694   2.662 -1.6364 -0.4760  1.3476
 1329SOL     OW 5427   3.188   7.297   2.686  0.1064 -0.4014 -0.3166
 1329SOL    HW1 5428   3.192   7.335   2.774  0.8294  0.8654 -0.8583
 1329SOL    HW2 5429   3.112   7.339   2.645  0.3254 -0.2832 -0.6036
 1330SOL     OW 5430   6.048   5.273   6.521 -0.1315  0.1458 -0.6548
 1330SOL    HW1 5431   6.134   5.269   6.562 -0.7481  1.5134  0.9071
 1330SOL    HW2 5432   6.058   5.227   6.438  2.3113  1.0352 -0.9203
 1331SOL     OW 5433   2.340   1.529   1.414 -0.2232 -0.1029 -0.1745
 1331SOL    HW1 5434   2.429   1.504   1.392 -0.2985 -1.3720  0.9056
 1331SOL    HW2 5435   2.319   1.599   1.351  1.2227 -0.3502 -0.9706
 1332SOL     OW 5436   5.571   5.872  12.145  0.4631 -0.4674 -0.1408
 1332SOL    HW1 5437   5.542   5.787  12.178 -0.0109 -0.1054  0.4067
 1332SOL    HW2 5438   5.618   5.910  12.219 -1.6586  0.8742  0.6028
 1333SOL     OW 5439   1.434   2.626   4.124 -0.4755 -0.0238  0.4120
 1333SOL    HW1 5440   1.344   2.597   4.134  0.1222 -1.9344  0.6591
 1333SOL    HW2 5441   1.451   2.620   4.030  0.0745 -2.0105  0.5924
 1334SOL     OW 5442   1.659   5.124   4.996 -0.2749  0.0941  0.5334
 1334SOL    HW1 5443   1.666   5.178   4.918  0.5528 -0.4462  0.2148
 1334SOL    HW2 5444   1.613   5.045   4.967  2.1896 -1.2400 -0.0920
 1335SOL     OW 5445   0.802   0.137   1.106 -0.5702 -0.1652 -0.5154
 1335SOL    HW1 5446   0.834   0.194   1.176 -1.2367 -0.2190 -0.1630
 1335SOL    HW2 5447   0.882   0.100   1.067 -0.2143 -2.3870  2.0869
 1336SOL     OW 5448   5.370   6.185   9.398  0.1942  0.0896 -0.0892
 1336SOL    HW1 5449   5.323   6.238   9.333 -0.1712 -0.7773 -0.5460
 1336SOL    HW2 5450   5.303   6.158   9.461  0.0791 -1.0064 -0.6490
 1337SOL     OW 5451   1.292   7.517   3.240  0.3444  0.0109 -0.2637
 1337SOL    HW1 5452   1.253   7.553   3.160 -1.2856  1.5768  1.1364
 1337SOL    HW2 5453   1.371   7.569   3.253 -1.4375  2.6404  1.1596
 1338SOL     OW 5454   2.610   1.219   9.780 -0.5047 -0.2239  0.1147
 1338SOL    HW1 5455   2.590   1.153   9.846 -2.2373 -0.7440 -0.8703
 1338SOL    HW2 5456   2.531   1.224   9.726  0.5548  0.7541 -1.4323
 1339SOL     OW 5457   0.252   5.243   8.345  0.4149 -0.1272 -0.2687
 1339SOL    HW1 5458   0.222   5.167   8.295  0.0846  0.2289 -0.6145
 1339SOL    HW2 5459   0.174   5.276   8.389  0.5850 -0.0673 -0.0035
 1340SOL     OW 5460   5.541   7.090  10.338 -0.0429  0.0523 -0.8598
 1340SOL    HW1 5461   5.605   7.092  10.267  0.1828 -0.8492 -0.6999
 1340SOL    HW2 5462   5.538   6.998  10.365  0.2916  0.4646  0.6738
 1341SOL     OW 5463   2.422   7.472  12.131  0.4421 -0.5028  0.5625
 1341SOL    HW1 5464   2.456   7.424  12.207 -1.5898 -0.4891  1.5578
 1341SOL    HW2 5465   2.363   7.410  12.088 -1.4257  0.6748  1.2739
 1342SOL     OW 5466   7.379   0.010  11.611  0.2305  0.2274  0.1547
 1342SOL    HW1 5467   7.349  -0.071  11.653 -0.1139  0.0577 -0.4065
 1342SOL    HW2 5468   7.396   0.070  11.684  1.3399 -0.6309  0.6309
 1343SOL     OW 5469   4.444   5.945   9.824  0.4559  0.1619 -0.4651
 1343SOL    HW1 5470   4.531   5.960   9.788  1.4242 -0.4537  1.4981
 1343SOL    HW2 5471   4.439   5.851   9.839  0.0519  0.3646  0.8338
 1344SOL     OW 5472   3.439   7.462   7.259  0.3430  0.4729 -0.3108
 1344SOL    HW1 5473   3.481   7.378   7.242  2.1477  1.3840 -0.6343
 1344SOL    HW2 5474   3.464   7.517   7.184 -0.0478  1.5539  0.3194
 1345SOL     OW 5475   7.205   4.562   9.245  0.1056 -0.0936 -0.0803
 1345SOL    HW1 5476   7.143   4.510   9.194  1.7008 -1.7526 -0.4312
 1345SOL    HW2 5477   7.215   4.643   9.196  0.4879 -1.0510 -1.6423
 1346SOL     OW 5478   4.808   4.860   2.707  0.0515  0.5432  0.5432
 1346SOL    HW1 5479   4.824   4.837   2.799  2.8909  2.2877  0.5651
 1346SOL    HW2 5480   4.892   4.850   2.664 -0.7593  1.6946 -1.4568
 1347SOL     OW 5481   2.497   0.185   2.394 -0.8048 -0.1713  0.2840
 1347SOL    HW1 5482   2.589   0.178   2.418 -0.6094  0.0071 -0.3740
 1347SOL    HW2 5483   2.498   0.220   2.305 -1.5239  0.2925  0.4445
 1348SOL     OW 5484   1.833   6.482   7.033  0.1164 -0.2533  0.6346
 1348SOL    HW1 5485   1.788   6.401   7.057 -2.9529  0.1310 -2.8784
 1348SOL    HW2 5486   1.773   6.552   7.060  0.6240  0.5801 -0.3242
 1349SOL     OW 5487   0.843   2.239   4.918 -0.7335 -0.0418 -0.3725
 1349SOL    HW1 5488   0.865   2.298   4.990 -0.3374  1.0768 -1.3716
 1349SOL    HW2 5489   0.759   2.200   4.944 -0.5597  0.2633  0.7237
 1350SOL     OW 5490   0.925   6.639   8.439 -0.0194  0.1057  0.0683
 1350SOL    HW1 5491   0.901   6.635   8.532 -1.4083  1.2601 -0.2003
 1350SOL    HW2 5492   0.851   6.683   8.397  1.3850  1.2917 -1.2984
 1351SOL     OW 5493   4.189   7.802   1.165 -0.1234  0.0578 -0.3616
 1351SOL    HW1 5494   4.252   7.874   1.161  0.9850 -0.9316 -1.4682
 1351SOL    HW2 5495   4.241   7.723   1.154 -1.5228 -0.8050 -1.1778
 1352SOL     OW 5496   6.756   2.691  12.267  0.1628  0.5922  0.6767
 1352SOL    HW1 5497   6.674   2.642  12.266  0.6081 -0.2853  2.5169
 1352SOL    HW2 5498   6.728   2.783  12.272 -0.7118  0.3191  1.0089
 1353SOL     OW 5499   3.734   0.943   5.244 -0.2527 -0.1506  0.5254
 1353SOL    HW1 5500   3.703   1.005   5.311 -0.6624  1.3084 -0.9519
 1353SOL    HW2 5501   3.826   0.965   5.232 -0.9428  1.9379 -1.7201
 1354SOL     OW 5502   2.956   7.513  12.458  0.0330  0.0002 -0.4869
 1354SOL    HW1 5503   2.873   7.512  12.506  0.4057  0.3960  0.1788
 1354SOL    HW2 5504   2.969   7.604  12.433  1.1157  0.2844  0.9500
 1355SOL     OW 5505   6.329   0.887  12.432 -0.1396  0.2513  0.3234
 1355SOL    HW1 5506   6.319   0.964  12.488 -0.7891  0.2914  0.1550
 1355SOL    HW2 5507   6.419   0.892  12.401 -0.2853  1.1469  0.0163
 1356SOL     OW 5508   7.792   4.040  10.001 -0.2274 -0.1909 -0.3446
 1356SOL    HW1 5509   7.827   4.081   9.922  1.2564  2.7886  1.6843
 1356SOL    HW2 5510   7.727   4.102  10.034  0.2913 -0.6103  1.5589
 1357SOL     OW 5511   4.896   2.772  10.780 -0.2914 -0.0499 -0.4654
 1357SOL    HW1 5512   4.902   2.753  10.686  0.7108  2.1618 -0.9271
 1357SOL    HW2 5513   4.804   2.795  10.793 -0.1617  1.0832 -1.2866
 1358SOL     OW 5514   1.267   7.260   5.127  0.0213 -0.7402  0.3065
 1358SOL    HW1 5515   1.326   7.186   5.144 -0.7601 -1.1461  1.3717
 1358SOL    HW2 5516   1.216   7.233   5.052 -0.2595 -1.2924  0.6930
 1359SOL     OW 5517   3.603   7.451   3.908  0.0436 -0.0445  0.2981
 1359SOL    HW1 5518   3.549   7.525   3.936 -0.6363 -0.6407  0.5990
 1359SOL    HW2 5519   3.602   7.454   3.813  0.3711  0.5776  0.3096
 1360SOL     OW 5520   5.334   3.512   2.434  0.4203  0.8851  0.0601
 1360SOL    HW1 5521   5.242   3.534   2.448  0.2536  0.1648  0.1268
 1360SOL    HW2 5522   5.333   3.425   2.394  1.1095 -0.1318  2.0761
 1361SOL     OW 5523   3.366   5.926   7.097 -0.3028  0.7115  0.3391
 1361SOL    HW1 5524   3.336   5.842   7.131 -0.3935  0.0901 -1.2055
 1361SOL    HW2 5525   3.348   5.988   7.167 -1.4652 -0.3383  1.0045
 1362SOL     OW 5526   0.322   1.732   1.889  0.4180 -0.4246  0.7587
 1362SOL    HW1 5527   0.321   1.798   1.819  0.0053 -0.4715  0.7166
 1362SOL    HW2 5528   0.406   1.688   1.879  0.6776  0.0604  0.7526
 1363SOL     OW 5529   5.995   7.318   7.409  0.1750  0.2330 -0.2902
 1363SOL    HW1 5530   6.065   7.302   7.472 -2.0850 -0.3086  2.2522
 1363SOL    HW2 5531   5.924   7.259   7.436 -1.6087  1.3590 -2.2153
 1364SOL     OW 5532   6.574   0.890   3.375  0.2481 -0.2863 -0.6515
 1364SOL    HW1 5533   6.510   0.825   3.347 -0.2522 -0.4552  0.7830
 1364SOL    HW2 5534   6.549   0.911   3.465  1.5580  0.4540 -0.4292
 1365SOL     OW 5535   6.393   3.777   3.013  0.3857  0.2384 -0.5264
 1365SOL    HW1 5536   6.404   3.817   3.099 -0.9359 -0.2428 -0.1144
 1365SOL    HW2 5537   6.337   3.838   2.965  1.5179  0.7521 -1.2443
 1366SOL     OW 5538   4.929   2.994   7.087 -0.0609  0.3093  0.4664
 1366SOL    HW1 5539   4.896   2.942   7.160  0.1419 -1.4249 -0.6259
 1366SOL    HW2 5540   4.968   3.071   7.129 -0.8395 -0.1353  2.1033
 1367SOL     OW 5541   4.253   6.672  10.294 -0.2612 -0.3235 -0.0492
 1367SOL    HW1 5542   4.250   6.615  10.372 -1.8903  0.7186  0.6967
 1367SOL    HW2 5543   4.297   6.618  10.228 -0.5451 -1.9616  1.0148
 1368SOL     OW 5544   6.929   5.975   4.766  0.7393 -0.1336  0.1530
 1368SOL    HW1 5545   7.005   5.919   4.783  0.6136 -0.5012 -0.4740
 1368SOL    HW2 5546   6.854   5.915   4.765  0.5299  0.1240  0.0349
 1369SOL     OW 5547   3.683   3.037   3.456 -0.5759  0.2033 -0.4858
 1369SOL    HW1 5548   3.776   3.059   3.448 -0.4553  0.2825  0.9551
 1369SOL    HW2 5549   3.671   3.015   3.548 -2.3145  1.6738 -0.3040
 1370SOL     OW 5550   3.235   3.807   0.014 -0.2735 -0.2201 -0.2664
 1370SOL    HW1 5551   3.143   3.781   0.020 -0.3972 -0.1337 -1.5580
 1370SOL    HW2 5552   3.268   3.762  -0.064  1.1808 -1.3639  0.9510
 1371SOL     OW 5553   7.097   7.316   6.733 -0.9837 -0.3038 -0.9323
 1371SOL    HW1 5554   7.036   7.388   6.742 -0.0763  0.4330 -0.5480
 1371SOL    HW2 5555   7.056   7.243   6.780 -2.0585 -0.1536 -1.6072
 1372SOL     OW 5556   0.647   5.277   6.127 -0.1340  0.0693 -0.1933
 1372SOL    HW1 5557   0.573   5.256   6.184  0.2072 -0.5585  0.0260
 1372SOL    HW2 5558   0.656   5.201   6.070  0.5810 -0.0337  0.0440
 1373SOL     OW 5559   5.892   2.709   8.169  0.2282  0.5478  0.3708
 1373SOL    HW1 5560   5.928   2.673   8.250  2.3526 -2.6208 -1.7338
 1373SOL    HW2 5561   5.943   2.788   8.153  3.1348 -1.2647 -0.0567
 1374SOL     OW 5562   1.951   7.398   1.718  0.1413  0.0107 -0.0706
 1374SOL    HW1 5563   2.021   7.380   1.781 -0.9842 -1.5446  0.7851
 1374SOL    HW2 5564   1.871   7.401   1.770 -0.7186 -0.5052 -1.3074
 1375SOL     OW 5565   7.902   6.399   3.949  0.0959 -0.3404 -0.1169
 1375SOL    HW1 5566   7.920   6.471   3.889 -0.1647 -1.3605 -1.4842
 1375SOL    HW2 5567   7.962   6.412   4.022 -1.5874  2.6099  0.9224
 1376SOL     OW 5568   2.597   4.512   1.092 -0.1357 -0.6512  0.2599
 1376SOL    HW1 5569   2.609   4.589   1.147  0.4383 -0.4876 -0.0846
 1376SOL    HW2 5570   2.617   4.438   1.149  0.9885 -0.4585  0.1357
 1377SOL     OW 5571   7.854   7.353   6.653  0.3191 -0.7133  0.6944
 1377SOL    HW1 5572   7.934   7.385   6.612 -0.5003  1.5413  0.6929
 1377SOL    HW2 5573   7.783   7.385   6.596 -0.7159  0.3101  2.4562
 1378SOL     OW 5574   4.470   6.986   6.322 -0.1591  0.5509 -0.1007
 1378SOL    HW1 5575   4.440   7.016   6.235  1.6709  0.6495 -0.7474
 1378SOL    HW2 5576   4.563   6.967   6.309 -0.2735 -1.2415  1.4043
 1379SOL     OW 5577   4.466   4.511   2.769  0.5291  0.1343  0.3476
 1379SOL    HW1 5578   4.380   4.546   2.792  1.7566  1.3440  3.6738
 1379SOL    HW2 5579   4.469   4.426   2.812  0.8583 -0.0702 -0.0788
 1380SOL     OW 5580   0.341   5.376   4.677 -0.3132 -0.3462 -0.2354
 1380SOL    HW1 5581   0.354   5.291   4.719  3.1301 -0.2829 -0.8790
 1380SOL    HW2 5582   0.425   5.420   4.686 -1.4357  2.2757 -1.5575
 1381SOL     OW 5583   5.288   0.146   9.156 -0.0066  0.5155 -0.5505
 1381SOL    HW1 5584   5.328   0.063   9.181  0.2100  0.7286 -0.1769
 1381SOL    HW2 5585   5.195   0.135   9.178 -0.0712  0.1912 -0.9779
 1382SOL     OW 5586   4.794   0.194   1.015  0.0435 -0.3960 -0.6104
 1382SOL    HW1 5587   4.867   0.184   1.075  1.2942  2.7269 -1.4535
 1382SOL    HW2 5588   4.830   0.170   0.929 -0.1224  0.3729 -0.9059
 1383SOL     OW 5589   4.859   4.277   1.076 -0.0839 -0.1676  0.1103
 1383SOL    HW1 5590   4.840   4.213   1.007  0.8044  1.3547 -1.6567
 1383SOL    HW2 5591   4.858   4.362   1.030 -0.5333  1.0176  2.2147
 1384SOL     OW 5592   0.254   5.411   3.050  0.1835 -0.3641 -0.4415
 1384SOL    HW1 5593   0.251   5.319   3.024 -0.6207 -1.0050  1.7008
 1384SOL    HW2 5594   0.194   5.417   3.125  0.1770  1.9201 -0.5473
 1385SOL     OW 5595   6.480   2.905   2.850 -0.4859 -0.4775 -0.1254
 1385SOL    HW1 5596   6.410   2.853   2.888 -0.8453 -0.4922 -0.7815
 1385SOL    HW2 5597   6.517   2.849   2.782 -0.8858  0.1090 -0.8467
 1386SOL     OW 5598   6.991   0.079   9.363 -0.3823  0.3926 -0.4223
 1386SOL    HW1 5599   6.964   0.009   9.423  0.1892  0.0523 -0.5592
 1386SOL    HW2 5600   7.067   0.044   9.317  0.2578  1.3060 -0.1005
 1387SOL     OW 5601   7.393   1.094   4.090  0.5463  0.5611 -0.0898
 1387SOL    HW1 5602   7.452   1.165   4.116  2.6324 -0.3886 -1.8972
 1387SOL    HW2 5603   7.369   1.115   4.000  1.3526 -1.0940 -0.7206
 1388SOL     OW 5604   4.608   0.888   1.710  0.0326  0.0771  0.0481
 1388SOL    HW1 5605   4.607   0.984   1.716 -0.3241  0.1356 -0.8003
 1388SOL    HW2 5606   4.515   0.864   1.707  0.0850 -0.3977  1.4858
 1389SOL     OW 5607   3.722   5.354  10.938  0.5800  0.0838  0.0926
 1389SOL    HW1 5608   3.748   5.436  10.980 -1.6186  0.8594  0.0239
 1389SOL    HW2 5609   3.772   5.353  10.855 -0.7155  2.3057 -0.7888
 1390SOL     OW 5610   2.015   3.989   5.600  0.1846  0.1615  0.0844
 1390SOL    HW1 5611   2.093   4.019   5.554  0.2111  0.0903  0.0821
 1390SOL    HW2 5612   1.955   4.063   5.597 -1.1016 -0.8283 -2.9154
 1391SOL     OW 5613   6.993   5.591   4.909  0.3635  0.1233  0.6591
 1391SOL    HW1 5614   7.020   5.682   4.921 -0.4134  0.0825  3.1338
 1391SOL    HW2 5615   6.910   5.584   4.955  0.6057 -1.9511  0.8689
 1392SOL     OW 5616   1.690   3.278   2.295 -0.4279 -0.2114 -0.4642
 1392SOL    HW1 5617   1.705   3.188   2.265 -0.2575 -0.3080 -0.0958
 1392SOL    HW2 5618   1.654   3.323   2.219 -0.9224 -0.7013 -0.5251
 1393SOL     OW 5619   2.344   5.834   7.704  0.2866 -0.1966 -0.1681
 1393SOL    HW1 5620   2.314   5.908   7.757 -2.2518 -0.0698 -1.5976
 1393SOL    HW2 5621   2.364   5.765   7.767 -1.0708  0.4552  1.0375
 1394SOL     OW 5622   2.436   0.610   2.095  0.0907  0.4553 -0.0105
 1394SOL    HW1 5623   2.418   0.524   2.059  0.4386 -0.0717  1.0276
 1394SOL    HW2 5624   2.483   0.657   2.026 -0.3184 -0.0897 -0.6699
 1395SOL     OW 5625   6.578   5.571   4.626  0.3808  0.1691 -0.4343
 1395SOL    HW1 5626   6.630   5.496   4.653 -0.2730 -0.1842 -0.1356
 1395SOL    HW2 5627   6.588   5.634   4.698  0.4633  0.1361 -0.4165
 1396SOL     OW 5628   7.770   5.723   6.297 -0.1466  0.4933  0.4761
 1396SOL    HW1 5629   7.765   5.649   6.237 -1.0709  0.7166  0.2584
 1396SOL    HW2 5630   7.800   5.686   6.380 -2.3916 -0.4874  0.9132
 1397SOL     OW 5631   4.005   5.644   9.296  0.0094 -0.3376  0.1071
 1397SOL    HW1 5632   4.004   5.738   9.309  0.2732 -0.4317  0.9263
 1397SOL    HW2 5633   4.023   5.632   9.203 -1.4787  0.4249 -0.3006
 1398SOL     OW 5634   4.499   2.042   2.273 -0.4726 -0.4618  0.1393
 1398SOL    HW1 5635   4.404   2.053   2.279 -0.6481 -2.0002  0.6996
 1398SOL    HW2 5636   4.528   2.034   2.363 -0.1158 -2.0207 -0.0859
 1399SOL     OW 5637   3.075   2.301  10.893 -0.1544  0.2074 -0.1664
 1399SOL    HW1 5638   3.117   2.341  10.970  1.0642 -0.9422 -0.1906
 1399SOL    HW2 5639   3.045   2.375  10.841  0.0435  1.0321  0.8567
 1400SOL     OW 5640   4.612   7.799   1.328  0.1566 -0.2852  0.1260
 1400SOL    HW1 5641   4.706   7.813   1.315  0.1041 -1.2507 -1.7507
 1400SOL    HW2 5642   4.571   7.845   1.255 -0.8354  0.0771  0.8953
 1401SOL     OW 5643   3.522   3.043   1.282 -0.6483 -0.0803  0.3557
 1401SOL    HW1 5644   3.557   3.056   1.194  0.0589  0.2788  0.6847
 1401SOL    HW2 5645   3.481   3.126   1.305 -1.6445 -0.4647  0.0154
 1402SOL     OW 5646   6.641   1.468   2.427  0.0615  0.1027  0.1142
 1402SOL    HW1 5647   6.605   1.483   2.340  0.2797  2.4889  0.3744
 1402SOL    HW2 5648   6.566   1.438   2.479 -0.5171  0.5911 -0.4217
 1403SOL     OW 5649   1.192   2.875   4.609  0.1458  0.1896  0.6264
 1403SOL    HW1 5650   1.193   2.919   4.694  0.8597 -1.0405  1.2831
 1403SOL    HW2 5651   1.117   2.913   4.564 -0.6156  0.4616  2.0444
 1404SOL     OW 5652   3.212   2.578   8.330  0.9549 -0.2925  0.2547
 1404SOL    HW1 5653   3.282   2.638   8.354  0.1036 -0.1790  2.8153
 1404SOL    HW2 5654   3.204   2.519   8.405 -0.1398 -1.8102 -0.9691
 1405SOL     OW 5655   7.902   5.886   2.457  0.6275  0.5905 -0.3865
 1405SOL    HW1 5656   7.874   5.794   2.458  0.7857  0.5489  0.6622
 1405SOL    HW2 5657   7.937   5.899   2.369 -0.4597 -0.0290 -0.9360
 1406SOL     OW 5658   0.911   7.911   1.371  0.1948  0.2493  0.0096
 1406SOL    HW1 5659   0.894   8.004   1.356 -0.4164  0.0502 -0.5447
 1406SOL    HW2 5660   0.969   7.885   1.300  1.8674  0.6202  1.1746
 1407SOL     OW 5661   0.690   7.577   8.139  0.3189  0.5639 -0.0447
 1407SOL    HW1 5662   0.672   7.592   8.046  0.1684 -0.8818 -0.2764
 1407SOL    HW2 5663   0.610   7.606   8.183 -0.0325  0.2811 -0.4759
 1408SOL     OW 5664   6.889   6.439   3.884  0.0010  0.2984 -0.0618
 1408SOL    HW1 5665   6.937   6.503   3.831 -1.2388  0.8954 -0.5037
 1408SOL    HW2 5666   6.815   6.414   3.829 -0.0706 -0.7786  0.5105
 1409SOL     OW 5667   6.264   5.819   3.482 -0.1544  0.2440 -0.0361
 1409SOL    HW1 5668   6.225   5.901   3.453  0.7284  0.4704 -0.6296
 1409SOL    HW2 5669   6.301   5.781   3.402  3.2632  1.3688  0.8683
 1410SOL     OW 5670   0.473   3.721   8.803  0.0167 -0.2682  0.4611
 1410SOL    HW1 5671   0.384   3.710   8.769 -0.0865 -1.1317  0.9678
 1410SOL    HW2 5672   0.529   3.691   8.732  0.0051  1.7755 -0.4812
 1411SOL     OW 5673   1.305   3.424   5.159  0.7479 -0.4829 -0.0682
 1411SOL    HW1 5674   1.261   3.427   5.074  1.3065  0.3848 -0.3461
 1411SOL    HW2 5675   1.346   3.338   5.162  0.4200 -0.6563 -0.5201
 1412SOL     OW 5676   2.072   5.247  11.130  0.1112 -0.5888 -0.2247
 1412SOL    HW1 5677   2.054   5.340  11.141 -1.5477 -0.6009 -2.2685
 1412SOL    HW2 5678   2.124   5.242  11.049  0.6027 -1.4180  0.1228
 1413SOL     OW 5679   4.392   2.290   5.652 -0.4017  0.0408  0.0612
 1413SOL    HW1 5680   4.359   2.355   5.590 -2.9712  0.6326  1.9126
 1413SOL    HW2 5681   4.419   2.341   5.728 -0.3708 -0.8982  0.6864
 1414SOL     OW 5682   7.100   7.219   4.456 -0.5128 -0.0849 -0.1018
 1414SOL    HW1 5683   7.092   7.157   4.528 -0.8029  1.2096  1.0377
 1414SOL    HW2 5684   7.041   7.186   4.389  0.0089 -1.4949  0.1168
 1415SOL     OW 5685   4.396   2.688   6.078  0.1076  0.2400 -0.0222
 1415SOL    HW1 5686   4.358   2.730   6.155 -0.3315 -0.8631  0.3908
 1415SOL    HW2 5687   4.324   2.681   6.016 -0.0140 -0.5156  0.1890
 1416SOL     OW 5688   1.839   2.885   5.964  0.5503 -1.0862  0.1151
 1416SOL    HW1 5689   1.809   2.860   5.877  0.2172 -1.3838  0.3122
 1416SOL    HW2 5690   1.930   2.857   5.968  0.6294 -0.8826 -0.2089
 1417SOL     OW 5691   4.481   7.371   3.801 -0.0944  0.3263  0.1198
 1417SOL    HW1 5692   4.546   7.409   3.861 -1.5376  0.7920  1.4526
 1417SOL    HW2 5693   4.445   7.297   3.849  0.9481 -1.3133 -1.4919
 1418SOL     OW 5694   6.809   1.501   5.920 -0.2689  0.1323  0.3634
 1418SOL    HW1 5695   6.813   1.592   5.950  1.8137 -0.3334  1.8147
 1418SOL    HW2 5696   6.868   1.498   5.845 -0.9550  0.1184 -0.1830
 1419SOL     OW 5697   6.297   1.311   9.369  0.1143 -0.0939  0.1388
 1419SOL    HW1 5698   6.296   1.387   9.310 -0.5220 -1.1345 -1.2501
 1419SOL    HW2 5699   6.389   1.290   9.380  0.2642  0.4724 -0.0182
 1420SOL     OW 5700   4.046   1.043   3.291  0.2692  0.0235 -0.1324
 1420SOL    HW1 5701   4.044   1.115   3.228  1.2339 -0.2387 -0.4805
 1420SOL    HW2 5702   4.119   1.063   3.349  2.4097 -2.0353 -1.9312
 1421SOL     OW 5703   4.798   3.406   1.512  0.3612 -0.7426 -0.4138
 1421SOL    HW1 5704   4.814   3.497   1.487 -0.3641 -0.7045 -0.7425
 1421SOL    HW2 5705   4.789   3.360   1.429  0.6886 -1.1153 -0.2458
 1422SOL     OW 5706   6.314   4.880  11.842  0.3285 -0.2937  0.5436
 1422SOL    HW1 5707   6.239   4.844  11.794 -1.1930  1.1237  1.7183
 1422SOL    HW2 5708   6.289   4.971  11.861  2.1218  0.0627  1.4675
 1423SOL     OW 5709   1.757   3.700   4.426  0.2114  0.3512 -0.7592
 1423SOL    HW1 5710   1.784   3.689   4.518 -0.6057 -0.6945 -0.6206
 1423SOL    HW2 5711   1.714   3.785   4.423  0.9962  0.7772 -0.3706
 1424SOL     OW 5712   7.253   1.646   0.222  0.3226 -0.4953 -0.1393
 1424SOL    HW1 5713   7.258   1.561   0.179  0.6904  0.8424 -2.9586
 1424SOL    HW2 5714   7.342   1.664   0.252  0.7018 -0.2728 -1.3448
 1425SOL     OW 5715   7.236   5.686   6.344  0.1397  0.0657  0.0014
 1425SOL    HW1 5716   7.206   5.748   6.278 -2.5042  1.2896  2.1733
 1425SOL    HW2 5717   7.234   5.735   6.426  1.8845 -1.7963  1.2583
 1426SOL     OW 5718   6.897   4.518   1.594 -0.0586 -0.0204 -0.2379
 1426SOL    HW1 5719   6.947   4.436   1.590  1.3974  0.8494 -0.6536
 1426SOL    HW2 5720   6.936   4.566   1.667 -1.5288 -0.0572  0.6150
 1427SOL     OW 5721   1.515   5.210   3.178  0.3206  0.0426 -0.3970
 1427SOL    HW1 5722   1.559   5.157   3.111  0.2772  0.0956 -0.4673
 1427SOL    HW2 5723   1.547   5.174   3.261 -0.6063 -0.8746 -0.4098
 1428SOL     OW 5724   7.152   7.172   9.628 -0.5636 -0.0458 -0.1883
 1428SOL    HW1 5725   7.060   7.186   9.651 -0.3771 -0.4098  0.8376
 1428SOL    HW2 5726   7.192   7.258   9.636 -0.9568  0.2622 -1.3780
 1429SOL     OW 5727   0.622   5.710   3.784  0.4599 -0.2072 -0.0310
 1429SOL    HW1 5728   0.689   5.776   3.800  0.7882 -0.7088  0.7364
 1429SOL    HW2 5729   0.644   5.673   3.699  0.9082 -0.0699  0.0237
 1430SOL     OW 5730   1.280   0.963   9.438 -0.1097  0.4732 -0.3298
 1430SOL    HW1 5731   1.365   1.007   9.439 -0.5008  1.2451  0.0919
 1430SOL    HW2 5732   1.229   1.008   9.505 -0.2316 -1.2854  0.8233
 1431SOL     OW 5733   5.450   7.616  11.495  0.0371  0.3200  0.3439
 1431SOL    HW1 5734   5.363   7.588  11.523  0.2502  0.8723  1.5823
 1431SOL    HW2 5735   5.433   7.682  11.427 -0.4881 -0.2120 -0.0532
 1432SOL     OW 5736   3.996   5.538   9.917  0.0011 -0.0623  0.4194
 1432SOL    HW1 5737   3.987   5.554   9.823 -1.3967 -0.7357  0.4128
 1432SOL    HW2 5738   3.960   5.450   9.930 -1.4039  0.6614  1.8150
 1433SOL     OW 5739   7.488   5.144   1.655  0.4262 -0.0331 -0.1391
 1433SOL    HW1 5740   7.553   5.211   1.637 -1.0626  2.0735  1.8318
 1433SOL    HW2 5741   7.524   5.096   1.731 -0.5974  1.6794  1.4998
 1434SOL     OW 5742   4.193   2.607   4.057 -0.1264 -0.3914  0.1704
 1434SOL    HW1 5743   4.136   2.643   3.988  0.9510  0.3562 -0.3492
 1434SOL    HW2 5744   4.136   2.599   4.133 -1.0343 -0.0461 -0.4499
 1435SOL     OW 5745   6.656   6.343   3.689  0.1211 -0.3917  0.1303
 1435SOL    HW1 5746   6.563   6.346   3.711 -0.0973 -0.4470 -0.7781
 1435SOL    HW2 5747   6.677   6.249   3.689 -0.4846 -0.5959 -2.3015
 1436SOL     OW 5748   2.942   2.972   7.874  0.1112 -0.2313 -0.6379
 1436SOL    HW1 5749   3.015   3.017   7.917 -0.2526 -0.3298  0.0941
 1436SOL    HW2 5750   2.929   3.020   7.792  0.1763  0.5817 -0.1822
 1437SOL     OW 5751   0.391   6.193   0.815  0.0849 -0.1500  0.2110
 1437SOL    HW1 5752   0.323   6.245   0.858 -0.0749 -0.5122  0.4019
 1437SOL    HW2 5753   0.423   6.249   0.745 -0.3349  0.0675  0.1881
 1438SOL     OW 5754   7.162   2.387  10.479  0.2788 -0.2191  0.1289
 1438SOL    HW1 5755   7.173   2.304  10.526 -1.0517 -0.8198 -0.5696
 1438SOL    HW2 5756   7.135   2.449  10.546 -0.2535 -0.7361  0.4018
 1439SOL     OW 5757   4.030   6.386   3.332  0.2989  0.6178  0.0708
 1439SOL    HW1 5758   4.012   6.367   3.424 -0.2367  2.9797  0.5252
 1439SOL    HW2 5759   4.078   6.309   3.301 -1.5001 -1.2811  1.6645
 1440SOL     OW 5760   4.775   1.347  11.241 -0.3130 -0.0743  0.2688
 1440SOL    HW1 5761   4.726   1.429  11.233 -1.5563 -0.8243  0.0173
 1440SOL    HW2 5762   4.866   1.375  11.252  0.0067  1.3634 -4.1558
 1441SOL     OW 5763   4.104   0.520   7.873 -0.0953  0.0622 -0.1486
 1441SOL    HW1 5764   4.151   0.496   7.953  0.3104  0.4378 -0.2649
 1441SOL    HW2 5765   4.170   0.566   7.820 -0.4098 -0.0222 -0.6161
 1442SOL     OW 5766   6.932   2.478   5.714  0.1305  0.7042 -0.6472
 1442SOL    HW1 5767   6.927   2.447   5.623  0.1392 -0.3471 -0.3019
 1442SOL    HW2 5768   6.883   2.561   5.714 -0.8738  0.1308 -1.3720
 1443SOL     OW 5769   5.457   1.419   5.285  0.2571  0.0974  0.1130
 1443SOL    HW1 5770   5.417   1.504   5.302 -0.0357  0.1385 -0.7585
 1443SOL    HW2 5771   5.519   1.408   5.357 -0.5214  0.5253  0.8656
 1444SOL     OW 5772   2.459   7.314   2.762  0.2898 -0.1824  0.4521
 1444SOL    HW1 5773   2.381   7.341   2.713  1.6219  2.1003 -0.5757
 1444SOL    HW2 5774   2.449   7.357   2.847  0.5196  0.2668  0.2516
 1445SOL     OW 5775   7.694   0.936   5.927 -0.2489 -0.1575 -0.3169
 1445SOL    HW1 5776   7.614   0.936   5.875  0.2129 -2.6800 -1.1494
 1445SOL    HW2 5777   7.761   0.898   5.870  1.5143  1.5182  0.4922
 1446SOL     OW 5778   3.635   7.835   6.673  0.1125  0.2430 -0.3585
 1446SOL    HW1 5779   3.656   7.925   6.697 -1.3047  0.2414  0.9784
 1446SOL    HW2 5780   3.706   7.783   6.710  0.4407  0.7155 -0.3161
 1447SOL     OW 5781   4.849   6.652   4.670  0.3372  0.0904  0.0756
 1447SOL    HW1 5782   4.914   6.712   4.633 -0.4639  0.4690 -0.7844
 1447SOL    HW2 5783   4.781   6.647   4.603 -0.9028  0.3382  1.2560
 1448SOL     OW 5784   4.976   0.347   6.770  0.6958  0.2224  0.3583
 1448SOL    HW1 5785   4.908   0.403   6.806  1.0189  2.4849 -2.2406
 1448SOL    HW2 5786   4.935   0.261   6.764 -0.3810  0.4586  2.9330
 1449SOL     OW 5787   1.229   3.901   8.786 -0.6917  0.3046 -0.2251
 1449SOL    HW1 5788   1.139   3.904   8.754 -1.0926  1.9493  0.9578
 1449SOL    HW2 5789   1.268   3.827   8.739 -2.8350 -0.9015 -0.2414
 1450SOL     OW 5790   2.134   4.769   9.134  0.3823  0.1656  0.4148
 1450SOL    HW1 5791   2.101   4.776   9.044  1.4019 -0.1101  0.0113
 1450SOL    HW2 5792   2.066   4.720   9.180 -0.8213  1.5284  0.1607
 1451SOL     OW 5793   4.100   0.560   2.324 -0.5374  0.5495  0.3113
 1451SOL    HW1 5794   4.154   0.517   2.258  0.4689  2.0222  0.1281
 1451SOL    HW2 5795   4.028   0.499   2.339  0.0025 -0.4832 -1.0491
 1452SOL     OW 5796   0.028   1.743  10.812  0.2474  0.1897 -0.7144
 1452SOL    HW1 5797   0.050   1.802  10.740  2.7858  0.5018  0.2055
 1452SOL    HW2 5798   0.082   1.774  10.885 -0.1413 -1.8238  0.4916
 1453SOL     OW 5799   1.069   6.473   2.014 -0.5090  0.2893  0.4652
 1453SOL    HW1 5800   0.974   6.473   2.013 -0.5250 -1.2752  0.2084
 1453SOL    HW2 5801   1.093   6.400   2.071  0.5107 -0.3481 -0.7127
 1454SOL     OW 5802   0.810   0.135  11.819 -0.2472  0.2930  0.0235
 1454SOL    HW1 5803   0.720   0.103  11.821  0.1948 -1.1039 -0.9665
 1454SOL    HW2 5804   0.801   0.230  11.808 -1.5976  0.1939  0.1182
 1455SOL     OW 5805   3.493   4.907  11.028 -0.0218 -0.5545  0.2258
 1455SOL    HW1 5806   3.419   4.872  11.078 -1.4859 -1.9518 -2.6269
 1455SOL    HW2 5807   3.453   4.946  10.950  2.1519  0.5875 -0.3992
 1456SOL     OW 5808   1.646   5.839   6.216  0.3437  0.9261 -0.4506
 1456SOL    HW1 5809   1.588   5.886   6.276 -1.1161 -0.1618 -0.9588
 1456SOL    HW2 5810   1.687   5.771   6.270 -1.3685 -0.3956 -0.7129
 1457SOL     OW 5811   6.538   7.435  10.206 -0.4109  0.1770  0.4385
 1457SOL    HW1 5812   6.622   7.436  10.161  0.6685  0.7845  2.3974
 1457SOL    HW2 5813   6.478   7.477  10.144  0.6531 -0.4248 -1.0666
 1458SOL     OW 5814   4.461   0.745   9.985 -0.1132 -0.2430 -0.2817
 1458SOL    HW1 5815   4.504   0.666  10.018  1.1776  1.0688  1.3475
 1458SOL    HW2 5816   4.398   0.768  10.054 -1.5151 -0.5881 -1.3880
 1459SOL     OW 5817   0.260   6.438   8.597  0.5723  0.1902  0.3453
 1459SOL    HW1 5818   0.221   6.367   8.546 -3.8503 -0.5050  4.0043
 1459SOL    HW2 5819   0.324   6.395   8.653  0.4393 -0.2381  0.1701
 1460SOL     OW 5820   5.741   1.055  10.169  0.3654 -0.6053  0.2654
 1460SOL    HW1 5821   5.824   1.025  10.205 -0.1928 -1.4429  0.9116
 1460SOL    HW2 5822   5.757   1.066  10.076  1.4981  0.3301  0.5618
 1461SOL     OW 5823   0.387   4.538  12.119 -0.0744 -0.6099  0.5188
 1461SOL    HW1 5824   0.326   4.580  12.059 -0.1244 -0.3012  0.7841
 1461SOL    HW2 5825   0.402   4.451  12.081 -2.3351 -1.5253  1.5604
 1462SOL     OW 5826   1.482   6.268   5.055  0.7547 -0.1777 -0.0842
 1462SOL    HW1 5827   1.563   6.320   5.050  0.6606  0.0241  0.3895
 1462SOL    HW2 5828   1.484   6.229   5.143  0.0280  0.3519  0.1815
 1463SOL     OW 5829   5.969   1.015   4.811  0.0408 -0.8704 -0.6936
 1463SOL    HW1 5830   6.023   0.950   4.855  0.3741  0.1338  0.4292
 1463SOL    HW2 5831   5.932   1.068   4.881 -1.4734 -0.7861 -1.5032
 1464SOL     OW 5832   6.256   3.670   3.750  0.1294  0.3258  0.5198
 1464SOL    HW1 5833   6.344   3.700   3.726  1.1395 -3.7638 -1.9634
 1464SOL    HW2 5834   6.197   3.737   3.715  2.1590  0.8505 -2.2379
 1465SOL     OW 5835   6.450   3.864   8.248 -0.0626  0.0333  0.0366
 1465SOL    HW1 5836   6.394   3.817   8.310  0.1684 -1.4862 -0.8545
 1465SOL    HW2 5837   6.462   3.803   8.175  0.0404  1.6025 -1.3182
 1466SOL     OW 5838   2.201   7.414   5.354 -0.1819  0.0782 -0.0833
 1466SOL    HW1 5839   2.175   7.506   5.367 -0.8568 -0.0768 -0.2784
 1466SOL    HW2 5840   2.219   7.408   5.260 -0.9101 -0.1719 -0.2130
 1467SOL     OW 5841   1.160   6.530   9.210 -0.0393  0.1982  0.0267
 1467SOL    HW1 5842   1.223   6.460   9.190  0.4133  0.7347 -0.4548
 1467SOL    HW2 5843   1.099   6.528   9.137 -0.1358  0.1815  0.1090
 1468SOL     OW 5844   4.797   6.879  12.418  0.3215 -0.3940  0.2109
 1468SOL    HW1 5845   4.714   6.857  12.460  0.4572  1.2267  1.4670
 1468SOL    HW2 5846   4.845   6.929  12.485  1.1951  1.0137 -1.3733
 1469SOL     OW 5847   6.881   4.771   1.758 -0.7110 -0.1886 -0.9136
 1469SOL    HW1 5848   6.931   4.754   1.838 -2.1575  0.3241  0.1398
 1469SOL    HW2 5849   6.941   4.819   1.701 -0.1600  0.8462  0.5013
 1470SOL     OW 5850   2.184   5.269   4.283 -0.0661  0.2047 -0.2985
 1470SOL    HW1 5851   2.264   5.219   4.268  0.3391  0.7861 -0.1132
 1470SOL    HW2 5852   2.142   5.273   4.197  1.0866  1.5589 -0.8523
 1471SOL     OW 5853   0.229   0.127   3.675  0.3431 -1.2503  0.3836
 1471SOL    HW1 5854   0.251   0.138   3.583 -0.4208  0.2401  0.3564
 1471SOL    HW2 5855   0.135   0.114   3.676  0.5257 -2.8693  0.8690
 1472SOL     OW 5856   7.201   0.083   2.330  0.5182  0.1300  0.2505
 1472SOL    HW1 5857   7.270   0.117   2.387  3.4206 -0.8108 -2.4170
 1472SOL    HW2 5858   7.181   0.155   2.271  0.0079  0.0300  0.2973
 1473SOL     OW 5859   0.370   6.230   3.064  0.6182  0.8955  0.7916
 1473SOL    HW1 5860   0.316   6.307   3.082 -1.6634 -0.4985  0.3607
 1473SOL    HW2 5861   0.393   6.195   3.150  1.3432  1.8102  0.9837
 1474SOL     OW 5862   1.294   5.901   1.859 -0.3637  0.1438 -0.1818
 1474SOL    HW1 5863   1.269   5.845   1.786  0.7763 -1.3675  0.5334
 1474SOL    HW2 5864   1.250   5.863   1.935  1.4502 -0.6452  0.5343
 1475SOL     OW 5865   3.745   6.935   9.793 -0.1547 -0.3811 -0.2791
 1475SOL    HW1 5866   3.768   6.985   9.715  0.1192  1.5641  0.9764
 1475SOL    HW2 5867   3.816   6.953   9.854  0.5811 -3.3333 -0.1476
 1476SOL     OW 5868   2.937   4.119   8.750 -0.8655  0.2023  0.5549
 1476SOL    HW1 5869   2.910   4.203   8.787 -1.7782 -0.4398  1.3934
 1476SOL    HW2 5870   3.013   4.140   8.696 -0.9002  1.5179  0.9839
 1477SOL     OW 5871   6.964   3.449   9.575  0.3988  0.3598 -0.4232
 1477SOL    HW1 5872   7.000   3.528   9.614  2.0742 -0.2665 -0.6195
 1477SOL    HW2 5873   6.928   3.477   9.491 -1.2648  1.3170  0.5502
 1478SOL     OW 5874   6.707   0.949   4.245  0.5356  0.2573  0.1825
 1478SOL    HW1 5875   6.660   1.031   4.259  1.3744  0.6599  0.7480
 1478SOL    HW2 5876   6.761   0.939   4.324  1.0001 -0.4587 -0.2174
 1479SOL     OW 5877   0.877   7.249  10.982  0.5338  0.2163 -0.1228
 1479SOL    HW1 5878   0.841   7.175  10.934  0.5034  1.0076 -1.3560
 1479SOL    HW2 5879   0.819   7.260  11.057  0.5672 -1.0252  0.1076
 1480SOL     OW 5880   0.685   6.710  11.148  0.3493  0.0876  0.3332
 1480SOL    HW1 5881   0.688   6.692  11.242 -3.3174  1.9872  1.0209
 1480SOL    HW2 5882   0.720   6.799  11.139  0.4064  0.0292 -0.0359
 1481SOL     OW 5883   2.723   4.901   7.917  0.1673  0.0441 -0.2309
 1481SOL    HW1 5884   2.654   4.907   7.983 -0.3371  1.0216 -0.8021
 1481SOL    HW2 5885   2.725   4.809   7.892  0.8794 -0.4960  1.6340
 1482SOL     OW 5886   7.081   2.167   9.641 -0.0038  0.3747  0.1660
 1482SOL    HW1 5887   7.026   2.228   9.691 -1.5158  0.5246 -1.5532
 1482SOL    HW2 5888   7.050   2.080   9.667 -1.0219  0.4566 -0.6664
 1483SOL     OW 5889   1.274   4.701   9.555 -0.4416 -0.2631 -0.3481
 1483SOL    HW1 5890   1.273   4.759   9.631  2.0857 -1.0574  0.3993
 1483SOL    HW2 5891   1.258   4.614   9.591 -0.8476 -0.4504 -0.9639
 1484SOL     OW 5892   5.847   6.016   8.931 -0.2025  0.5028  0.1918
 1484SOL    HW1 5893   5.794   5.937   8.924 -1.5874  1.2122  1.9094
 1484SOL    HW2 5894   5.892   6.022   8.847 -0.4557 -1.8066 -0.1749
 1485SOL     OW 5895   4.915   6.708  10.927  0.2514 -0.4077 -0.0061
 1485SOL    HW1 5896   4.903   6.708  11.022  2.2090 -0.9996  0.2894
 1485SOL    HW2 5897   4.859   6.779  10.896 -0.0045  0.1722  1.6537
 1486SOL     OW 5898   5.139   2.544   2.718 -0.0842  0.0583  0.3720
 1486SOL    HW1 5899   5.158   2.542   2.812 -0.1176 -0.2736  0.3727
 1486SOL    HW2 5900   5.187   2.620   2.686  1.6112 -0.9829  0.3089
 1487SOL     OW 5901   7.869   0.324   1.344  0.3773  0.3780  0.8060
 1487SOL    HW1 5902   7.894   0.355   1.431 -0.1021  0.9002  0.7671
 1487SOL    HW2 5903   7.950   0.290   1.306  1.4290  3.3416  0.0997
 1488SOL     OW 5904   6.735   1.477  12.036  0.7898 -0.3490 -0.2636
 1488SOL    HW1 5905   6.711   1.556  12.084 -0.3503 -1.4278  1.0594
 1488SOL    HW2 5906   6.829   1.468  12.048  0.6830 -0.0191  0.9168
 1489SOL     OW 5907   5.665   1.295   2.412 -1.0384  0.0525  0.2557
 1489SOL    HW1 5908   5.724   1.361   2.449  0.0231  1.0340 -2.8467
 1489SOL    HW2 5909   5.722   1.221   2.391 -1.3236  0.0605 -0.5909
 1490SOL     OW 5910   7.111   2.413   7.332  0.2932 -0.1096 -0.7135
 1490SOL    HW1 5911   7.059   2.387   7.408 -0.0935 -0.9355 -1.2500
 1490SOL    HW2 5912   7.127   2.331   7.285 -0.0704  0.4873 -1.8995
 1491SOL     OW 5913   0.229   0.960   1.215 -0.0426 -0.2196 -0.2444
 1491SOL    HW1 5914   0.287   0.963   1.291  0.1469  0.9609 -0.4069
 1491SOL    HW2 5915   0.278   0.912   1.149  1.1425  1.4527 -0.6514
 1492SOL     OW 5916   7.072   3.893   8.912 -0.2794 -0.0845  0.3827
 1492SOL    HW1 5917   7.108   3.810   8.945 -2.1387 -0.6854  0.9972
 1492SOL    HW2 5918   7.125   3.960   8.956  1.7627 -0.8836 -0.6921
 1493SOL     OW 5919   7.046   4.909   3.826 -0.6258  0.1560  0.3470
 1493SOL    HW1 5920   6.983   4.912   3.754 -0.4276 -1.0214  0.1034
 1493SOL    HW2 5921   7.055   5.000   3.854 -1.7197  0.4564 -0.2312
 1494SOL     OW 5922   1.224   2.334   2.627 -0.0097  0.3335  0.4074
 1494SOL    HW1 5923   1.247   2.393   2.699  0.4766  0.5317  0.0958
 1494SOL    HW2 5924   1.196   2.392   2.556  2.9634  0.4373 -0.8368
 1495SOL     OW 5925   1.143   0.283   2.963 -0.4202  0.2176 -0.2201
 1495SOL    HW1 5926   1.179   0.365   2.997  0.4606 -0.4390  0.4900
 1495SOL    HW2 5927   1.084   0.253   3.032  0.0047 -0.2234 -0.0391
 1496SOL     OW 5928   2.713   5.503   4.853 -0.1667  0.0555 -0.0483
 1496SOL    HW1 5929   2.761   5.442   4.909  0.9117 -0.0921 -1.0688
 1496SOL    HW2 5930   2.627   5.512   4.894 -0.4523 -2.3325  0.0246
 1497SOL     OW 5931   3.057   0.879   7.590 -0.4261 -0.0809  0.4807
 1497SOL    HW1 5932   3.128   0.910   7.646 -0.7371 -1.0777  1.4636
 1497SOL    HW2 5933   3.094   0.876   7.502 -0.1301  2.2101  0.4623
 1498SOL     OW 5934   4.683   3.063   4.009 -0.2729  0.4387  0.2285
 1498SOL    HW1 5935   4.728   3.011   4.075 -0.1295  0.2429 -0.0208
 1498SOL    HW2 5936   4.626   3.001   3.964  0.6437  0.2617 -0.7483
 1499SOL     OW 5937   2.443   6.531   0.200 -0.0944 -0.0706 -0.3040
 1499SOL    HW1 5938   2.414   6.528   0.109 -0.2231 -0.7949 -0.2477
 1499SOL    HW2 5939   2.491   6.613   0.208 -0.5706  0.2652 -0.8766
 1500SOL     OW 5940   3.771   7.638   7.250  0.3799 -0.2654 -0.5008
 1500SOL    HW1 5941   3.837   7.570   7.237 -1.4157 -2.7466  2.1360
 1500SOL    HW2 5942   3.697   7.609   7.197 -0.4947 -0.5759  0.8545
 1501SOL     OW 5943   3.708   2.936   2.141 -0.6801 -0.6027 -0.1713
 1501SOL    HW1 5944   3.632   2.989   2.165 -0.2226  0.2468 -0.5411
 1501SOL    HW2 5945   3.674   2.847   2.131 -1.5365 -0.3086  0.1047
 1502SOL     OW 5946   1.531   5.860   6.998  0.5092  0.3861  0.1125
 1502SOL    HW1 5947   1.473   5.840   7.071  0.4940  2.4161  0.7290
 1502SOL    HW2 5948   1.572   5.777   6.976 -0.5595 -0.5481  1.4873
 1503SOL     OW 5949   1.116   0.940  11.375 -0.8613 -0.6309 -0.3258
 1503SOL    HW1 5950   1.208   0.942  11.401 -0.8139  1.8637 -0.5115
 1503SOL    HW2 5951   1.068   0.924  11.456 -0.3281 -0.8614 -0.0506
 1504SOL     OW 5952   5.227   0.963   4.812 -0.0567  1.0124 -0.4512
 1504SOL    HW1 5953   5.141   1.005   4.803 -0.0997  0.8742 -0.7093
 1504SOL    HW2 5954   5.235   0.943   4.905 -1.4810 -1.3906 -0.7553
 1505SOL     OW 5955   4.863   6.680   7.544  0.1011 -0.0792  0.0605
 1505SOL    HW1 5956   4.884   6.772   7.528  0.0496  0.0480  0.7102
 1505SOL    HW2 5957   4.856   6.642   7.456  1.1910  0.2918 -0.2131
 1506SOL     OW 5958   2.057   6.740   2.471  0.1883  0.2287  0.3850
 1506SOL    HW1 5959   2.114   6.678   2.517  0.3925 -0.3423 -0.6052
 1506SOL    HW2 5960   2.084   6.826   2.504 -1.4821 -0.2323  3.3384
 1507SOL     OW 5961   4.688   2.975   4.539 -0.4409 -0.0417 -0.2782
 1507SOL    HW1 5962   4.762   3.036   4.544  0.5353 -1.2593  0.7747
 1507SOL    HW2 5963   4.610   3.031   4.547  0.4525  0.9739  2.4064
 1508SOL     OW 5964   6.362   5.368   0.421 -0.0283  0.4641 -0.3037
 1508SOL    HW1 5965   6.296   5.379   0.353  0.6990 -0.8271 -1.2646
 1508SOL    HW2 5966   6.324   5.411   0.498 -1.2475  1.1925 -1.2763
 1509SOL     OW 5967   1.480   4.140   9.648 -0.1098  0.9074  0.6006
 1509SOL    HW1 5968   1.431   4.091   9.582  0.5040  0.1337  0.6931
 1509SOL    HW2 5969   1.421   4.210   9.675 -1.5175 -0.5048  1.3623
 1510SOL     OW 5970   2.492   0.799   7.848  0.6607 -0.2935  0.9124
 1510SOL    HW1 5971   2.560   0.861   7.874 -0.6656  1.6388  0.0532
 1510SOL    HW2 5972   2.454   0.837   7.769 -2.7441 -0.1671  2.4292
 1511SOL     OW 5973   7.088   0.235   8.538 -0.3711 -0.3559 -0.0426
 1511SOL    HW1 5974   7.116   0.320   8.570 -1.1536 -0.0081 -0.2598
 1511SOL    HW2 5975   7.012   0.253   8.484  0.7233 -0.9695 -1.8704
 1512SOL     OW 5976   0.661   5.618   9.609 -0.0040  0.2731  0.1170
 1512SOL    HW1 5977   0.691   5.691   9.662 -0.5674  0.4197  0.2318
 1512SOL    HW2 5978   0.684   5.643   9.519 -0.3821  0.6821  0.1330
 1513SOL     OW 5979   6.660   0.572  11.352  0.1359  0.2654  0.0537
 1513SOL    HW1 5980   6.738   0.574  11.407  0.4137 -2.3176 -0.1542
 1513SOL    HW2 5981   6.689   0.533  11.270 -1.3350 -0.5746 -0.1026
 1514SOL     OW 5982   2.475   0.409   4.155 -0.1754 -0.6465 -0.7796
 1514SOL    HW1 5983   2.414   0.412   4.229 -0.5023 -2.0656 -0.9597
 1514SOL    HW2 5984   2.470   0.497   4.117 -1.6783 -0.5370 -0.4241
 1515SOL     OW 5985   7.430   3.548  10.864  0.2765  0.4377  0.3165
 1515SOL    HW1 5986   7.405   3.640  10.869 -0.4587  0.2570  0.1721
 1515SOL    HW2 5987   7.349   3.501  10.882  0.8511 -0.1921  1.3744
 1516SOL     OW 5988   5.687   4.246   1.677 -0.1467 -0.1080  0.2285
 1516SOL    HW1 5989   5.602   4.291   1.681  0.5709  1.2429  0.9464
 1516SOL    HW2 5990   5.741   4.291   1.741  0.5998 -2.1207  1.0833
 1517SOL     OW 5991   3.683   5.401   9.631 -0.5565  0.8253 -0.2788
 1517SOL    HW1 5992   3.769   5.386   9.594 -0.4430 -0.2844  0.3804
 1517SOL    HW2 5993   3.662   5.319   9.677 -1.4722  1.4787  0.5098
 1518SOL     OW 5994   6.642   6.976   8.321 -0.1382  0.4794  0.1301
 1518SOL    HW1 5995   6.647   6.989   8.416  0.1450  2.1935 -0.0907
 1518SOL    HW2 5996   6.549   6.983   8.300 -0.4175 -1.5748  0.4524
 1519SOL     OW 5997   5.066   3.656   2.142 -0.2576 -0.1803 -0.1921
 1519SOL    HW1 5998   5.088   3.682   2.232  1.8226  1.4329 -1.0732
 1519SOL    HW2 5999   5.150   3.654   2.096 -1.3220 -0.3077 -2.2716
 1520SOL     OW 6000   3.750   2.085  10.445 -0.5740  0.5722 -0.3176
 1520SOL    HW1 6001   3.671   2.127  10.410 -1.0354  0.3585  0.4347
 1520SOL    HW2 6002   3.795   2.050  10.368 -1.9292 -0.5238 -0.6553
 1521SOL     OW 6003   4.462   6.696   9.074 -0.5098 -0.1969  0.0095
 1521SOL    HW1 6004   4.400   6.643   9.025  0.1928 -0.1321 -0.9871
 1521SOL    HW2 6005   4.409   6.745   9.136 -1.3094 -1.0446  0.0128
 1522SOL     OW 6006   3.710   4.488   2.621  0.6584 -0.4872 -0.4557
 1522SOL    HW1 6007   3.705   4.550   2.693 -0.3152 -0.6513 -0.3614
 1522SOL    HW2 6008   3.802   4.461   2.617  0.6463 -0.7986  1.0059
 1523SOL     OW 6009   1.256   6.564   4.331 -0.2856 -0.4119 -0.1461
 1523SOL    HW1 6010   1.237   6.641   4.276  2.7121  0.0297 -0.7221
 1523SOL    HW2 6011   1.221   6.490   4.281 -0.5688  0.3062 -1.0460
 1524SOL     OW 6012   1.442   7.631  10.101 -0.9560 -0.3504  0.0041
 1524SOL    HW1 6013   1.406   7.703  10.049  0.4400  0.6775  0.3732
 1524SOL    HW2 6014   1.389   7.630  10.181 -0.7171  0.5880  0.1902
 1525SOL     OW 6015   1.354   6.453   7.118  0.4400  0.0749  0.3610
 1525SOL    HW1 6016   1.286   6.520   7.107  0.6915  0.0821 -1.4359
 1525SOL    HW2 6017   1.306   6.371   7.131  0.1309  0.4731  2.0165
 1526SOL     OW 6018   7.708   7.392   8.982  0.0893  0.3412  0.1088
 1526SOL    HW1 6019   7.755   7.442   8.915  0.2155  1.2492  0.8482
 1526SOL    HW2 6020   7.732   7.301   8.966  2.2640  0.7776  0.5655
 1527SOL     OW 6021   6.575   6.494   7.520  0.0197  0.1636  0.4706
 1527SOL    HW1 6022   6.528   6.474   7.601  1.6981 -1.2518  1.1584
 1527SOL    HW2 6023   6.543   6.430   7.457 -0.0547  0.1689  0.5028
 1528SOL     OW 6024   4.000   1.815   1.305  0.1603 -0.0318 -0.3303
 1528SOL    HW1 6025   3.987   1.789   1.214  2.5013  2.5268 -1.5601
 1528SOL    HW2 6026   4.048   1.743   1.345  0.2153 -0.6421 -1.4692
 1529SOL     OW 6027   1.290   6.343   6.512 -0.4282 -0.0659 -0.5002
 1529SOL    HW1 6028   1.284   6.322   6.605  0.8092  1.6920  0.0402
 1529SOL    HW2 6029   1.381   6.324   6.489 -0.0089  1.8536 -0.6503
 1530SOL     OW 6030   4.713   5.040   6.450  0.0527 -0.1759  0.5250
 1530SOL    HW1 6031   4.770   5.091   6.393 -0.8939 -1.1468 -1.4064
 1530SOL    HW2 6032   4.771   4.977   6.492  0.4451 -1.3179 -1.6047
 1531SOL     OW 6033   6.898   7.747   9.815 -0.4988  0.3502 -0.6866
 1531SOL    HW1 6034   6.874   7.663   9.853 -0.4901 -0.9354 -3.3123
 1531SOL    HW2 6035   6.985   7.767   9.851 -1.1576  0.0786  1.1611
 1532SOL     OW 6036   4.801   4.037   2.253 -0.3573 -0.1545 -0.2355
 1532SOL    HW1 6037   4.881   4.085   2.232  0.1058 -0.3825  0.9019
 1532SOL    HW2 6038   4.811   3.953   2.209  0.8046 -0.8045  1.1737
 1533SOL     OW 6039   5.280   2.257  12.468 -0.7392 -0.3093  0.3118
 1533SOL    HW1 6040   5.259   2.203  12.392 -2.0944  2.0298 -1.0633
 1533SOL    HW2 6041   5.371   2.235  12.488 -1.2387 -3.0902 -0.1104
 1534SOL     OW 6042   7.340   3.644   2.358 -0.4924 -0.7198  0.3541
 1534SOL    HW1 6043   7.303   3.722   2.318 -1.8525 -1.3957  0.2209
 1534SOL    HW2 6044   7.417   3.674   2.405 -0.4359  0.5294 -0.5150
 1535SOL     OW 6045   5.822   4.873  12.156  0.0296 -0.0444 -0.1019
 1535SOL    HW1 6046   5.801   4.899  12.066  0.9278  1.0247 -0.0274
 1535SOL    HW2 6047   5.776   4.790  12.168  0.3754 -0.5232 -1.7581
 1536SOL     OW 6048   2.598   5.646   3.409  0.4149 -0.0650  0.3196
 1536SOL    HW1 6049   2.576   5.575   3.348 -0.2320  0.9017 -0.6031
 1536SOL    HW2 6050   2.635   5.601   3.485 -1.0207 -1.4783  0.2362
 1537SOL     OW 6051   2.143   7.852   2.975  0.6208 -0.1798  0.4164
 1537SOL    HW1 6052   2.194   7.922   3.016 -0.3619  0.2162  1.0048
 1537SOL    HW2 6053   2.063   7.846   3.028  0.5225 -1.5081  0.1586
 1538SOL     OW 6054   3.826   7.675   3.807 -0.4557  0.4183 -0.4748
 1538SOL    HW1 6055   3.798   7.627   3.886 -2.0012  0.5190 -0.9153
 1538SOL    HW2 6056   3.820   7.610   3.737  0.0183  0.5665 -0.6528
 1539SOL     OW 6057   2.706   3.227   8.748  0.5672 -0.0458 -0.0503
 1539SOL    HW1 6058   2.687   3.294   8.814  1.9824 -1.1259  1.5278
 1539SOL    HW2 6059   2.716   3.277   8.666 -0.5759  1.3976  0.6366
 1540SOL     OW 6060   7.746   7.246  11.777 -0.2444 -0.2967 -0.3008
 1540SOL    HW1 6061   7.749   7.163  11.730 -0.5944 -0.6063  0.2135
 1540SOL    HW2 6062   7.701   7.307  11.717 -1.0311 -0.7846 -0.2229
 1541SOL     OW 6063   1.238   3.798   0.673 -0.1734  0.0765  0.0920
 1541SOL    HW1 6064   1.189   3.842   0.604  0.5639  1.7378  0.5639
 1541SOL    HW2 6065   1.175   3.784   0.743 -0.2314  1.3087  0.3091
 1542SOL     OW 6066   4.241   7.102   5.673  0.3265  0.0068 -0.9274
 1542SOL    HW1 6067   4.260   7.185   5.718 -1.5580 -0.3981  0.7483
 1542SOL    HW2 6068   4.180   7.127   5.604 -0.9704 -0.0313  0.1483
 1543SOL     OW 6069   5.203   3.888   4.756 -0.4453 -0.6295  0.0487
 1543SOL    HW1 6070   5.119   3.908   4.798 -1.0408 -0.5987 -1.1031
 1543SOL    HW2 6071   5.269   3.905   4.823 -1.1883  1.5935  0.2936
 1544SOL     OW 6072   5.404   1.351   8.398 -0.0720 -0.1348  0.2032
 1544SOL    HW1 6073   5.348   1.406   8.344 -2.6680 -0.4350  2.3644
 1544SOL    HW2 6074   5.391   1.262   8.364  0.2679 -0.0353 -0.1997
 1545SOL     OW 6075   2.157   4.725   4.536 -0.2334 -0.7738  1.3078
 1545SOL    HW1 6076   2.165   4.790   4.607  0.3116  1.1145 -0.3753
 1545SOL    HW2 6077   2.130   4.777   4.460 -0.8540 -2.7445  0.1322
 1546SOL     OW 6078   7.295   5.745   5.961 -0.4339  0.4146 -0.1978
 1546SOL    HW1 6079   7.274   5.665   6.010  1.1063  0.8164  1.2073
 1546SOL    HW2 6080   7.277   5.815   6.023 -0.2681  1.0639 -0.8799
 1547SOL     OW 6081   1.154   0.271   1.486 -0.2263  0.1857  0.4984
 1547SOL    HW1 6082   1.186   0.264   1.576  0.0221 -0.2312  0.3806
 1547SOL    HW2 6083   1.177   0.187   1.446  0.6963  0.8108 -0.3005
 1548SOL     OW 6084   2.718   6.975  10.967 -0.1381  0.2561  0.3216
 1548SOL    HW1 6085   2.639   6.930  10.996 -1.0377  0.9720 -0.9100
 1548SOL    HW2 6086   2.772   6.983  11.045 -0.1660 -2.4454  0.7127
 1549SOL     OW 6087   3.639   2.707   0.300 -0.1276  0.1178  0.1943
 1549SOL    HW1 6088   3.678   2.639   0.245 -1.0336  0.0128 -0.3309
 1549SOL    HW2 6089   3.713   2.761   0.328  0.5506 -0.8385  0.2797
 1550SOL     OW 6090   5.574   5.987   7.413  0.4905 -0.6033  0.0587
 1550SOL    HW1 6091   5.533   5.918   7.361 -0.5220 -0.3054  0.4364
 1550SOL    HW2 6092   5.590   6.058   7.350 -2.8236  0.6814  0.4390
 1551SOL     OW 6093   1.860   3.079   4.594  0.0761  0.5230  0.3061
 1551SOL    HW1 6094   1.826   2.989   4.593  0.9092  0.2026  0.0770
 1551SOL    HW2 6095   1.840   3.112   4.506 -1.0804  0.9000  0.6940
 1552SOL     OW 6096   7.022   1.575   8.466 -0.0549 -0.4723 -0.1928
 1552SOL    HW1 6097   6.933   1.564   8.434 -0.1331 -0.5351  0.0451
 1552SOL    HW2 6098   7.075   1.522   8.406 -0.3792 -1.8346  0.6936
 1553SOL     OW 6099   7.349   1.338  11.837  0.3357 -0.4061  0.1367
 1553SOL    HW1 6100   7.380   1.354  11.927 -0.6635 -0.0984  0.4387
 1553SOL    HW2 6101   7.428   1.315  11.788  1.0925  0.6956  0.7997
 1554SOL     OW 6102   7.317   3.311   0.836  0.0451  0.5500  0.2164
 1554SOL    HW1 6103   7.363   3.321   0.752  0.1749 -0.1578  0.1971
 1554SOL    HW2 6104   7.369   3.362   0.898  0.7383 -0.0442  0.1470
 1555SOL     OW 6105   3.306   1.692   0.469  0.0329  0.1836 -0.6668
 1555SOL    HW1 6106   3.397   1.681   0.496  0.3726  2.5309 -0.7161
 1555SOL    HW2 6107   3.262   1.726   0.546 -0.4636  0.5754 -1.1179
 1556SOL     OW 6108   2.522   4.553   8.811  0.2042 -0.1526 -0.8642
 1556SOL    HW1 6109   2.596   4.611   8.793  1.4724 -0.5582  2.4134
 1556SOL    HW2 6110   2.460   4.608   8.860  0.8875 -1.1420  1.2228
 1557SOL     OW 6111   2.930   3.418   8.402  0.7959 -0.1054 -1.4695
 1557SOL    HW1 6112   2.934   3.494   8.461 -1.2689 -0.2864 -1.0071
 1557SOL    HW2 6113   2.990   3.354   8.442  1.8603  0.9184 -1.3602
 1558SOL     OW 6114   2.248   7.650   8.715 -0.0968  0.0765  0.5107
 1558SOL    HW1 6115   2.170   7.701   8.739  0.1551  0.7385 -0.0327
 1558SOL    HW2 6116   2.219   7.595   8.642 -0.0033  0.4728  0.1728
 1559SOL     OW 6117   3.688   2.936   7.934 -0.6160 -0.4055  0.1054
 1559SOL    HW1 6118   3.762   2.879   7.955 -1.2149 -1.3647 -0.3269
 1559SOL    HW2 6119   3.634   2.935   8.012 -0.2453  0.2215  0.3861
 1560SOL     OW 6120   6.661   4.220  10.957 -0.2541 -0.5092  0.4839
 1560SOL    HW1 6121   6.743   4.257  10.923 -0.4903 -1.5791 -1.4392
 1560SOL    HW2 6122   6.669   4.126  10.940 -1.1664 -0.8647  1.8998
 1561SOL     OW 6123   7.463   6.110   2.070 -0.2251 -0.4098 -0.4883
 1561SOL    HW1 6124   7.386   6.087   2.121 -0.2256  0.1237 -0.2346
 1561SOL    HW2 6125   7.442   6.085   1.981 -0.5300 -0.6430 -0.3511
 1562SOL     OW 6126   6.696   3.326  10.641  0.5019  0.7609 -0.1035
 1562SOL    HW1 6127   6.605   3.355  10.629  0.0122 -0.8863 -0.6129
 1562SOL    HW2 6128   6.747   3.407  10.639 -0.7556  1.5819 -1.7335
 1563SOL     OW 6129   3.040   4.277  11.238  0.0088  0.2019 -0.2137
 1563SOL    HW1 6130   3.102   4.290  11.167  0.1520 -2.6203 -0.7318
 1563SOL    HW2 6131   2.963   4.239  11.196 -0.2808 -0.6144  0.9951
 1564SOL     OW 6132   0.607   6.966   7.549  0.3728  0.2559 -0.6509
 1564SOL    HW1 6133   0.661   7.034   7.588  0.6961 -0.0230 -0.6093
 1564SOL    HW2 6134   0.586   6.907   7.621 -1.0918  1.0620 -0.3866
 1565SOL     OW 6135   1.401   7.835   7.113  0.3639  0.2266 -0.0570
 1565SOL    HW1 6136   1.415   7.788   7.031  0.1900  0.4789 -0.2338
 1565SOL    HW2 6137   1.329   7.894   7.095  0.7008  0.6967  0.1037
 1566SOL     OW 6138   2.992   3.727  12.141 -0.4242 -0.0111 -0.1946
 1566SOL    HW1 6139   3.017   3.635  12.145  1.5282  0.3404 -2.1363
 1566SOL    HW2 6140   2.985   3.746  12.047  0.9622  2.1926  0.0778
 1567SOL     OW 6141   6.046   7.642  10.379 -0.5733 -0.1093  0.3463
 1567SOL    HW1 6142   6.083   7.680  10.459 -1.1338  0.8048  0.1830
 1567SOL    HW2 6143   6.036   7.549  10.399  0.7205 -0.1798  0.8000
 1568SOL     OW 6144   4.632   1.794   3.140 -0.0970  0.0381  0.2510
 1568SOL    HW1 6145   4.679   1.825   3.062  1.4227 -1.3357  0.5643
 1568SOL    HW2 6146   4.591   1.872   3.175  2.2640  1.4294  0.1267
 1569SOL     OW 6147   2.438   3.900   1.178 -0.1129  0.1622  0.0123
 1569SOL    HW1 6148   2.355   3.878   1.221 -1.2605  1.7575 -1.2556
 1569SOL    HW2 6149   2.445   3.837   1.107 -1.7034  1.6675 -1.5747
 1570SOL     OW 6150   1.622   7.327   5.935 -0.1080 -0.1089  0.3544
 1570SOL    HW1 6151   1.550   7.291   5.883 -1.0140 -0.4748  1.7967
 1570SOL    HW2 6152   1.624   7.420   5.913 -0.4968 -0.2447 -0.2837
 1571SOL     OW 6153   3.214   6.794   5.815  0.6635 -0.0614 -0.0538
 1571SOL    HW1 6154   3.301   6.778   5.853  0.6551 -0.6943 -0.2943
 1571SOL    HW2 6155   3.164   6.715   5.836  0.1359  0.3086  0.0991
 1572SOL     OW 6156   5.509   6.556   2.185  1.0051  0.0298  0.0580
 1572SOL    HW1 6157   5.508   6.570   2.279  3.5052 -0.1331  0.1835
 1572SOL    HW2 6158   5.506   6.645   2.148  0.2921  0.1037  0.2740
 1573SOL     OW 6159   3.505   2.616   6.915  0.3384 -0.4860  0.3252
 1573SOL    HW1 6160   3.512   2.676   6.990 -0.6551  0.5999 -0.4149
 1573SOL    HW2 6161   3.441   2.657   6.857  0.6026 -1.6286 -0.8294
 1574SOL     OW 6162   0.912   1.413   2.813 -0.3015 -0.3143  0.1549
 1574SOL    HW1 6163   0.889   1.390   2.723 -0.6806  0.5056  0.0384
 1574SOL    HW2 6164   0.951   1.332   2.849 -0.3017 -0.6978 -0.6818
 1575SOL     OW 6165   5.858   0.263   5.465  0.6223  0.3349 -0.0478
 1575SOL    HW1 6166   5.925   0.205   5.430  0.8155  1.1114 -1.0183
 1575SOL    HW2 6167   5.888   0.351   5.442 -1.2860  0.6509 -1.5638
 1576SOL     OW 6168   2.804   4.208   1.818 -0.1284  0.4200 -0.1784
 1576SOL    HW1 6169   2.881   4.228   1.766  0.0201 -0.9819 -0.5426
 1576SOL    HW2 6170   2.837   4.158   1.893 -0.6517 -0.0700 -0.2648
 1577SOL     OW 6171   1.541   1.708   5.245  0.5269 -0.6050  0.8465
 1577SOL    HW1 6172   1.474   1.707   5.313 -1.9286 -3.4802 -1.3033
 1577SOL    HW2 6173   1.546   1.799   5.217 -0.3988  0.1612  2.9832
 1578SOL     OW 6174   1.678   2.172   4.320 -0.0856 -0.1189 -0.0750
 1578SOL    HW1 6175   1.731   2.145   4.245  0.9657  1.7416 -0.0492
 1578SOL    HW2 6176   1.741   2.180   4.392 -0.7924 -0.1318  0.5548
 1579SOL     OW 6177   4.261   0.797   6.831 -0.1634  0.5929  0.1591
 1579SOL    HW1 6178   4.283   0.849   6.908  0.4762  0.6747 -0.0712
 1579SOL    HW2 6179   4.292   0.850   6.757 -2.1991  1.2681 -0.2811
 1580SOL     OW 6180   3.330   4.499  10.822 -0.0924  0.0681  0.1113
 1580SOL    HW1 6181   3.271   4.570  10.801 -0.4374 -0.4685 -0.7869
 1580SOL    HW2 6182   3.357   4.516  10.912  0.0286  1.4560 -0.1645
 1581SOL     OW 6183   7.319   4.872   7.158 -0.4219 -0.6233  0.3693
 1581SOL    HW1 6184   7.260   4.946   7.170  0.2438  0.2415 -1.2399
 1581SOL    HW2 6185   7.263   4.801   7.127 -0.7754 -0.1372 -0.1278
 1582SOL     OW 6186   6.414   7.140   2.104  0.0196  0.3162 -0.0790
 1582SOL    HW1 6187   6.335   7.159   2.053 -0.6352 -1.6104  0.1083
 1582SOL    HW2 6188   6.469   7.088   2.046  0.5899  0.5629  0.2282
 1583SOL     OW 6189   3.987   1.023   4.103  0.4136  0.1134 -0.2719
 1583SOL    HW1 6190   3.915   1.040   4.042 -0.6198  0.8037  1.0920
 1583SOL    HW2 6191   3.989   1.100   4.160  1.7845 -0.2208  0.1625
 1584SOL     OW 6192   7.692   5.597  12.182  0.2392  0.3056  0.1476
 1584SOL    HW1 6193   7.654   5.633  12.262 -0.7263 -1.4772  0.5691
 1584SOL    HW2 6194   7.761   5.538  12.213 -0.6966 -1.0397 -0.2312
 1585SOL     OW 6195   1.942   0.039   2.427 -0.0285  0.0091 -0.5462
 1585SOL    HW1 6196   2.023   0.086   2.446  0.7602 -1.5023  0.0332
 1585SOL    HW2 6197   1.923  -0.009   2.508 -0.5560 -0.9966 -1.2445
 1586SOL     OW 6198   2.096   4.152  12.048  0.3716 -0.0261  0.7762
 1586SOL    HW1 6199   2.070   4.108  12.129  2.4093 -0.3292  1.3200
 1586SOL    HW2 6200   2.155   4.090  12.005  0.1019  0.5448 -0.4564
 1587SOL     OW 6201   3.428   3.279   1.356  0.2006  0.0273  0.5268
 1587SOL    HW1 6202   3.388   3.322   1.431 -1.2455 -0.1604 -0.1103
 1587SOL    HW2 6203   3.484   3.346   1.317  0.1716  0.4354  1.1709
 1588SOL     OW 6204   7.948   3.116   9.640 -0.1680 -0.6218 -0.1830
 1588SOL    HW1 6205   7.973   3.186   9.700  1.0259  0.5754 -1.9783
 1588SOL    HW2 6206   7.864   3.146   9.603 -0.4112 -0.8813  0.1550
 1589SOL     OW 6207   2.460   0.463   2.996  0.0757 -0.4108 -0.0633
 1589SOL    HW1 6208   2.371   0.430   3.006 -0.4331  0.6220 -0.9594
 1589SOL    HW2 6209   2.476   0.514   3.076 -0.7915  0.7879 -0.6153
 1590SOL     OW 6210   6.723   7.487   8.741  0.1257 -0.1068  0.6920
 1590SOL    HW1 6211   6.630   7.496   8.760  0.1149  0.5191  0.3558
 1590SOL    HW2 6212   6.745   7.399   8.773 -0.4749 -0.0918  1.1650
 1591SOL     OW 6213   4.509   0.824   6.350  0.0765 -0.7280 -0.2280
 1591SOL    HW1 6214   4.516   0.742   6.301 -1.5878 -1.1632  0.1914
 1591SOL    HW2 6215   4.442   0.874   6.302  0.7430  0.1956 -0.2141
 1592SOL     OW 6216   2.462   3.819   7.311 -0.2345  0.0629 -0.1537
 1592SOL    HW1 6217   2.398   3.869   7.361  0.5038  2.9148 -1.8397
 1592SOL    HW2 6218   2.546   3.839   7.352  0.0260 -0.2059 -0.5531
 1593SOL     OW 6219   0.503   3.595   6.471 -0.1001  0.3475 -0.0717
 1593SOL    HW1 6220   0.506   3.575   6.378  0.4173  0.0527  0.0064
 1593SOL    HW2 6221   0.579   3.650   6.487 -0.0962  0.2644  0.2052
 1594SOL     OW 6222   7.493   3.759   7.823  0.2199 -0.5647  0.2219
 1594SOL    HW1 6223   7.447   3.772   7.906  1.0667  0.2660  0.5810
 1594SOL    HW2 6224   7.423   3.758   7.757 -0.5755 -2.3256  1.0108
 1595SOL     OW 6225   3.439   7.787  11.239  0.1592 -0.0780  0.0367
 1595SOL    HW1 6226   3.387   7.794  11.159 -0.6967  1.0786  0.6799
 1595SOL    HW2 6227   3.497   7.712  11.223 -0.9738 -0.7480 -1.0975
 1596SOL     OW 6228   3.016   0.239   4.763  0.0704 -0.3646 -0.0916
 1596SOL    HW1 6229   2.937   0.215   4.811  0.3676 -0.5449  0.3152
 1596SOL    HW2 6230   3.080   0.259   4.831  0.5581 -0.8185 -0.4145
 1597SOL     OW 6231   3.314   4.550  11.944 -0.0160 -0.0703  0.4380
 1597SOL    HW1 6232   3.328   4.602  11.864 -0.3005  0.2429  0.5930
 1597SOL    HW2 6233   3.392   4.567  11.997  1.2776 -2.0382 -0.7152
 1598SOL     OW 6234   4.851   7.947   7.347 -0.2368  0.2558  0.5849
 1598SOL    HW1 6235   4.771   7.969   7.395  0.1228 -1.6425  2.1788
 1598SOL    HW2 6236   4.846   8.000   7.267 -2.0908  1.6707  1.5430
 1599SOL     OW 6237   1.123   2.398  11.092 -0.0900 -0.3934 -0.5885
 1599SOL    HW1 6238   1.059   2.327  11.099 -0.3558 -0.0852  0.3332
 1599SOL    HW2 6239   1.112   2.431  11.003 -0.9812 -0.5718 -0.5581
 1600SOL     OW 6240   5.319   6.225   7.343 -0.0000  0.7434 -0.6235
 1600SOL    HW1 6241   5.273   6.307   7.364 -0.7829  0.5812 -1.6590
 1600SOL    HW2 6242   5.327   6.180   7.427 -0.6492  1.3316 -0.2411
 1601SOL     OW 6243   3.025   7.757   6.719 -0.4859  0.3473 -0.2983
 1601SOL    HW1 6244   2.974   7.759   6.638  1.3895  2.2480 -1.5382
 1601SOL    HW2 6245   3.049   7.849   6.735  1.6057 -0.3123  0.7980
 1602SOL     OW 6246   3.432   2.784   9.811  0.3056 -0.3725 -0.1955
 1602SOL    HW1 6247   3.444   2.744   9.897  2.7469  0.7652  0.0798
 1602SOL    HW2 6248   3.393   2.870   9.829  2.4523  0.6176  0.0253
 1603SOL     OW 6249   1.633   3.003   5.093 -0.1581  0.1879 -0.7630
 1603SOL    HW1 6250   1.635   2.920   5.045 -1.3271 -0.6704  0.6051
 1603SOL    HW2 6251   1.722   3.014   5.126 -0.1283 -0.8234 -0.4824
 1604SOL     OW 6252   6.194   2.410   7.249 -0.2682  0.4086  0.2166
 1604SOL    HW1 6253   6.164   2.446   7.165  0.2503  0.5864  0.1041
 1604SOL    HW2 6254   6.241   2.483   7.290  0.5108 -0.0389  0.1293
 1605SOL     OW 6255   3.827   3.205  10.235  0.2723  0.0391 -0.1833
 1605SOL    HW1 6256   3.922   3.194  10.240  0.3129 -0.4817 -1.6725
 1605SOL    HW2 6257   3.814   3.300  10.234  0.8368  0.1180 -0.6713
 1606SOL     OW 6258   7.087   5.506   8.229  0.4405  0.0682 -0.3861
 1606SOL    HW1 6259   6.998   5.496   8.195 -0.3722 -0.1406  1.6113
 1606SOL    HW2 6260   7.087   5.454   8.310  2.3913  0.0656 -0.3494
 1607SOL     OW 6261   0.923   1.070   9.970  0.7699 -0.9194  0.2096
 1607SOL    HW1 6262   0.898   1.116   9.890  1.6370  1.9341  1.4432
 1607SOL    HW2 6263   0.927   0.978   9.945  2.2048 -0.0274 -3.3426
 1608SOL     OW 6264   6.152   6.131   3.714 -0.0099 -0.5772  0.3448
 1608SOL    HW1 6265   6.139   6.226   3.707 -0.2336 -0.5108  1.4845
 1608SOL    HW2 6266   6.073   6.093   3.677  0.9684 -0.4096 -2.1766
 1609SOL     OW 6267   7.042   0.515   8.280  0.5102  0.1589  0.1628
 1609SOL    HW1 6268   7.059   0.501   8.187 -0.7952  0.4055 -0.1213
 1609SOL    HW2 6269   7.005   0.433   8.311 -0.6442  0.6180  0.0595
 1610SOL     OW 6270   3.984   0.902   8.834 -0.0435  0.4643 -0.1521
 1610SOL    HW1 6271   3.989   0.858   8.749 -0.9369 -0.9910  0.4993
 1610SOL    HW2 6272   3.892   0.926   8.843 -0.6994 -2.2881  1.7102
 1611SOL     OW 6273   6.874   4.820   9.094 -0.1483  0.3710 -0.2910
 1611SOL    HW1 6274   6.859   4.756   9.025 -3.1147 -0.4802  0.9782
 1611SOL    HW2 6275   6.814   4.891   9.074 -1.4704 -0.1384  1.6191
 1612SOL     OW 6276   3.071   2.226   4.487 -0.0524  0.2679 -0.3270
 1612SOL    HW1 6277   3.165   2.243   4.480  0.0443 -0.1385 -0.0569
 1612SOL    HW2 6278   3.046   2.191   4.402 -0.0441  0.7639 -0.5376
 1613SOL     OW 6279   0.090   5.928   1.365  0.2998 -0.4545  0.4405
 1613SOL    HW1 6280   0.087   5.858   1.300 -2.5107 -0.4597  0.4484
 1613SOL    HW2 6281   0.028   5.901   1.433 -0.5516  1.7864  0.6444
 1614SOL     OW 6282   4.267   7.979   5.481 -0.0343 -0.0762 -0.1646
 1614SOL    HW1 6283   4.292   7.899   5.527  0.0871 -0.6904 -1.2719
 1614SOL    HW2 6284   4.349   8.026   5.468  0.3226 -1.1596 -2.0601
 1615SOL     OW 6285   5.493   2.890   9.104  0.0115 -0.0203  0.6301
 1615SOL    HW1 6286   5.572   2.919   9.150 -0.4128 -1.4775  2.3536
 1615SOL    HW2 6287   5.451   2.971   9.075  2.0719  0.7973 -0.2915
 1616SOL     OW 6288   1.818   4.622   4.215  0.2348 -0.6777  0.8695
 1616SOL    HW1 6289   1.857   4.709   4.214 -0.8923 -0.1604 -0.1797
 1616SOL    HW2 6290   1.740   4.632   4.269  0.2921 -1.1376  1.0439
 1617SOL     OW 6291   0.429   5.347  10.939  0.1421  0.1343 -0.0417
 1617SOL    HW1 6292   0.444   5.427  10.887  2.4552  0.4294  0.9715
 1617SOL    HW2 6293   0.383   5.288  10.879  0.3696  1.4072 -1.5378
 1618SOL     OW 6294   7.829   5.586   7.511  0.1322 -0.2309 -0.5263
 1618SOL    HW1 6295   7.901   5.538   7.551  1.8798  1.7604 -1.0905
 1618SOL    HW2 6296   7.823   5.551   7.422 -0.4726 -1.2494 -0.1082
 1619SOL     OW 6297   7.100   6.199   8.977 -0.4823 -0.5397 -0.5074
 1619SOL    HW1 6298   7.163   6.127   8.972 -0.8440 -0.8857 -0.1489
 1619SOL    HW2 6299   7.154   6.277   8.991 -0.1587 -0.9216  0.4805
 1620SOL     OW 6300   3.761   7.693  10.855  0.1036 -0.1374 -0.3538
 1620SOL    HW1 6301   3.793   7.750  10.785  0.1449 -0.8092 -0.8902
 1620SOL    HW2 6302   3.832   7.693  10.920  1.3717 -1.7930 -1.6317
 1621SOL     OW 6303   5.908   1.999   3.030  0.0268  0.5769  0.0862
 1621SOL    HW1 6304   5.916   2.069   2.965  0.6238 -0.2549 -0.7508
 1621SOL    HW2 6305   5.859   1.930   2.986  0.8331 -0.1781  0.3570
 1622SOL     OW 6306   2.342   1.918   0.692 -0.3360 -0.0184 -0.3222
 1622SOL    HW1 6307   2.378   1.926   0.603 -0.3202 -0.8016 -0.3958
 1622SOL    HW2 6308   2.289   1.997   0.704 -1.0757 -0.3354 -1.3752
 1623SOL     OW 6309   4.445   7.227   9.288 -0.7087  0.4705 -0.0281
 1623SOL    HW1 6310   4.512   7.176   9.335 -1.7073  1.1941  2.3196
 1623SOL    HW2 6311   4.393   7.161   9.241  0.0978 -0.3271  0.1722
 1624SOL     OW 6312   3.599   1.513  10.522 -0.2856  0.2804 -0.2332
 1624SOL    HW1 6313   3.666   1.579  10.542 -0.6430  0.4667  0.3756
 1624SOL    HW2 6314   3.547   1.508  10.602  1.5975 -3.0340  0.9635
 1625SOL     OW 6315   0.200   5.630  10.933 -0.2426 -0.2338 -0.9231
 1625SOL    HW1 6316   0.293   5.654  10.933 -0.4979  0.8424 -1.6543
 1625SOL    HW2 6317   0.159   5.694  10.875 -1.7103  0.3524  0.6593
 1626SOL     OW 6318   4.290   2.765   4.409  0.4461 -0.3041 -0.0306
 1626SOL    HW1 6319   4.256   2.737   4.323  1.6925 -2.5164  0.1284
 1626SOL    HW2 6320   4.267   2.858   4.414 -1.7478 -0.6639 -1.7297
 1627SOL     OW 6321   5.853   1.232  12.209 -0.1076  0.0978 -0.3925
 1627SOL    HW1 6322   5.825   1.168  12.273 -0.7167 -1.8493 -2.4669
 1627SOL    HW2 6323   5.930   1.273  12.248 -0.5277 -0.8823  1.5933
 1628SOL     OW 6324   2.699   3.365   9.543 -0.4648 -0.0836 -0.2667
 1628SOL    HW1 6325   2.749   3.334   9.467  0.3425 -0.6624  0.4919
 1628SOL    HW2 6326   2.652   3.442   9.510 -0.1645 -0.3520 -1.3682
 1629SOL     OW 6327   6.387   0.539   9.694 -0.7063  0.0331 -0.2207
 1629SOL    HW1 6328   6.330   0.470   9.729 -0.3423  0.7359  1.9249
 1629SOL    HW2 6329   6.475   0.513   9.723 -0.4057  0.7570 -0.4801
 1630SOL     OW 6330   1.873   3.352   1.186  0.2707  0.1468  0.3971
 1630SOL    HW1 6331   1.827   3.412   1.245 -1.0436  1.9935 -2.2808
 1630SOL    HW2 6332   1.924   3.410   1.129  1.0473 -1.4911 -0.6341
 1631SOL     OW 6333   4.302   6.107   9.423  0.4361  0.2633 -0.1955
 1631SOL    HW1 6334   4.209   6.129   9.418 -0.0730 -1.6856 -0.2957
 1631SOL    HW2 6335   4.343   6.161   9.357 -0.6897  0.8628 -0.4356
 1632SOL     OW 6336   2.793   1.926   0.032  0.0664 -0.3550 -0.1942
 1632SOL    HW1 6337   2.705   1.942   0.066  0.0398 -0.5932 -0.1482
 1632SOL    HW2 6338   2.782   1.858  -0.034 -0.1656  1.4089 -2.0771
 1633SOL     OW 6339   0.483   1.998   8.791  0.5488 -0.5147  0.1699
 1633SOL    HW1 6340   0.536   1.977   8.713  0.3900 -0.4463  0.0432
 1633SOL    HW2 6341   0.547   2.025   8.857  0.7386 -1.2087  0.2718
 1634SOL     OW 6342   0.094   6.880   5.078 -0.0589 -0.2946 -0.0599
 1634SOL    HW1 6343   0.177   6.927   5.068 -0.6715  1.0679  0.9395
 1634SOL    HW2 6344   0.082   6.873   5.173 -1.0646 -0.5204 -0.1951
 1635SOL     OW 6345   6.444   3.679   8.030  0.0839  0.2344 -0.6021
 1635SOL    HW1 6346   6.446   3.589   8.064 -0.6088  0.3596 -0.1936
 1635SOL    HW2 6347   6.387   3.674   7.953  0.2895  0.2644 -0.7545
 1636SOL     OW 6348   4.377   0.216  10.783  0.4008  0.2644  0.2193
 1636SOL    HW1 6349   4.356   0.191  10.693 -1.1119  0.6945  0.4298
 1636SOL    HW2 6350   4.473   0.223  10.784  0.5663 -1.3622 -0.9047
 1637SOL     OW 6351   3.712   2.773   9.710  0.1556  0.3785 -0.0421
 1637SOL    HW1 6352   3.750   2.777   9.797  0.4616 -1.7537 -0.0195
 1637SOL    HW2 6353   3.618   2.784   9.723  0.1640 -0.2683  0.6255
 1638SOL     OW 6354   2.400   3.950   3.908  0.0474  0.4125 -1.0436
 1638SOL    HW1 6355   2.484   3.926   3.945 -0.3438  1.2382  0.4620
 1638SOL    HW2 6356   2.395   4.045   3.919 -2.2137  0.1362  1.5831
 1639SOL     OW 6357   7.009   2.565  12.171 -0.0172  0.5641 -0.2903
 1639SOL    HW1 6358   7.063   2.543  12.095  0.5152 -1.1500  0.5322
 1639SOL    HW2 6359   6.919   2.559  12.139  0.2096  0.6261 -0.9597
 1640SOL     OW 6360   4.883   7.912   0.338  0.1044  0.0827 -0.0666
 1640SOL    HW1 6361   4.810   7.972   0.355 -1.5039 -1.7087 -0.3624
 1640SOL    HW2 6362   4.960   7.969   0.338 -1.5294  2.5915 -2.8056
 1641SOL     OW 6363   1.419   2.804   6.528  0.5344  0.3253 -0.2927
 1641SOL    HW1 6364   1.348   2.867   6.513  1.2346  1.0442 -0.6884
 1641SOL    HW2 6365   1.499   2.854   6.511  1.0869 -0.9797 -1.8163
 1642SOL     OW 6366   3.963   2.860   8.913  0.4581  0.0981 -0.4055
 1642SOL    HW1 6367   3.945   2.930   8.849 -1.0371 -0.2068 -0.3574
 1642SOL    HW2 6368   3.894   2.796   8.898  0.7117 -0.4861  0.8078
 1643SOL     OW 6369   7.900   5.125   2.401 -0.2428 -0.5925 -0.3018
 1643SOL    HW1 6370   7.921   5.085   2.317 -0.3068  0.9696 -1.0969
 1643SOL    HW2 6371   7.985   5.139   2.443  0.0559  1.3628 -1.4478
 1644SOL     OW 6372   2.713   1.393   3.531 -0.3748 -0.2473  0.0532
 1644SOL    HW1 6373   2.751   1.348   3.606  1.9709  2.9065  1.0220
 1644SOL    HW2 6374   2.782   1.390   3.464 -0.5576  0.9172 -0.2192
 1645SOL     OW 6375   7.049   7.427  10.729  0.7490 -0.1893 -0.2239
 1645SOL    HW1 6376   7.115   7.483  10.689  0.9926  0.5023  1.0829
 1645SOL    HW2 6377   7.049   7.348  10.675 -0.0256  1.2545 -2.4737
 1646SOL     OW 6378   1.469   0.794  10.420  0.4232  0.3184  0.0161
 1646SOL    HW1 6379   1.467   0.889  10.405  1.3661  0.1410 -1.4191
 1646SOL    HW2 6380   1.386   0.775  10.462  0.3923  1.8415  0.7156
 1647SOL     OW 6381   5.341   3.367  11.324  0.1766 -0.1741 -0.0431
 1647SOL    HW1 6382   5.385   3.282  11.319  1.0762  0.2729  0.0744
 1647SOL    HW2 6383   5.380   3.410  11.401 -0.0505  0.4605 -0.2743
 1648SOL     OW 6384   2.667   1.023   7.860  0.3964 -0.5821 -0.1803
 1648SOL    HW1 6385   2.689   1.044   7.769 -0.8843 -0.2076 -0.4322
 1648SOL    HW2 6386   2.659   1.109   7.902  2.0547 -0.7674  0.5927
 1649SOL     OW 6387   3.546   4.462  10.636  0.5840 -0.3886  0.1947
 1649SOL    HW1 6388   3.590   4.381  10.661  1.2932  0.0199  0.2975
 1649SOL    HW2 6389   3.467   4.465  10.690  1.2657 -0.3320  1.2079
 1650SOL     OW 6390   2.301   4.038  10.019  0.3332  0.3193 -0.1327
 1650SOL    HW1 6391   2.351   3.989  10.084 -0.6021 -0.2252  0.2074
 1650SOL    HW2 6392   2.258   4.107  10.069  1.6207  1.5026 -0.6075
 1651SOL     OW 6393   5.068   1.377   9.170  0.0420 -0.4347  0.0751
 1651SOL    HW1 6394   5.161   1.375   9.189 -0.0702 -0.7375  0.6023
 1651SOL    HW2 6395   5.025   1.395   9.253 -0.4144 -1.1970  0.0226
 1652SOL     OW 6396   4.194   6.798  10.978 -0.6437  0.1119 -0.3209
 1652SOL    HW1 6397   4.106   6.787  10.942 -0.8045  0.8346 -0.1525
 1652SOL    HW2 6398   4.223   6.884  10.948  1.7077 -1.6846 -3.9203
 1653SOL     OW 6399   5.797   1.298   9.155  0.1670 -0.2146 -0.0084
 1653SOL    HW1 6400   5.796   1.316   9.249 -0.7662 -0.5557  0.0646
 1653SOL    HW2 6401   5.722   1.348   9.121  2.2835  2.4761 -1.1060
 1654SOL     OW 6402   1.112   6.592   0.679 -0.2970  0.4388  0.1014
 1654SOL    HW1 6403   1.044   6.534   0.714  0.0427  0.6490  1.1639
 1654SOL    HW2 6404   1.068   6.676   0.670 -0.0796  0.6981  1.2559
 1655SOL     OW 6405   1.797   4.101   2.962 -0.3923 -0.0393  0.1813
 1655SOL    HW1 6406   1.773   4.058   2.880  0.6877  0.7940 -0.6005
 1655SOL    HW2 6407   1.727   4.078   3.023 -0.5158 -1.7906 -0.5761
 1656SOL     OW 6408   2.825   7.832  11.525 -0.0821  0.3015  0.2019
 1656SOL    HW1 6409   2.786   7.854  11.610 -0.4616  1.4999 -0.2729
 1656SOL    HW2 6410   2.864   7.913  11.495 -1.1058  0.2381 -1.3866
 1657SOL     OW 6411   3.224   1.829   5.113  0.1873 -0.1814  0.8038
 1657SOL    HW1 6412   3.129   1.817   5.114  0.0649  0.5658  0.0651
 1657SOL    HW2 6413   3.258   1.751   5.070 -0.3499  0.7124 -1.4342
 1658SOL     OW 6414   6.325   4.070   1.356 -0.3508 -0.1171  0.0029
 1658SOL    HW1 6415   6.310   4.034   1.444  0.9691  0.7748  0.6326
 1658SOL    HW2 6416   6.411   4.038   1.331 -1.8158 -2.6480 -2.2148
 1659SOL     OW 6417   0.237   7.807  11.414  0.8803 -0.4697  0.7988
 1659SOL    HW1 6418   0.171   7.834  11.477 -0.0312 -0.7274 -0.0149
 1659SOL    HW2 6419   0.308   7.871  11.424  0.7201 -0.4485  1.9938
 1660SOL     OW 6420   1.259   2.160   6.983 -0.0680  0.3496  0.0709
 1660SOL    HW1 6421   1.193   2.102   6.945 -1.3541  1.5591  0.3928
 1660SOL    HW2 6422   1.276   2.226   6.915  3.3718 -1.7453 -1.4005
 1661SOL     OW 6423   0.636   2.297   9.049 -0.0761 -0.1674 -0.1327
 1661SOL    HW1 6424   0.548   2.316   9.016 -0.1207  0.0699  0.1218
 1661SOL    HW2 6425   0.686   2.377   9.029  0.0508 -0.2565 -0.1702
 1662SOL     OW 6426   2.242   7.484   5.083 -0.3243 -0.2843  0.3515
 1662SOL    HW1 6427   2.261   7.446   4.997 -1.9212  0.2669 -0.2755
 1662SOL    HW2 6428   2.162   7.534   5.070 -1.0195 -0.7901  2.3433
 1663SOL     OW 6429   1.196   2.146   9.770  0.4024 -0.0313  0.8018
 1663SOL    HW1 6430   1.282   2.184   9.787  0.4879 -0.0574  0.4280
 1663SOL    HW2 6431   1.191   2.140   9.675 -0.2043  0.4155  0.8016
 1664SOL     OW 6432   4.013   4.508   2.317 -0.3694 -1.1037 -0.1540
 1664SOL    HW1 6433   3.974   4.421   2.327 -2.3389 -0.1114  1.6360
 1664SOL    HW2 6434   3.944   4.568   2.344  1.5062  0.9469  0.3502
 1665SOL     OW 6435   1.490   6.683   0.378  0.1894  0.3315  0.0316
 1665SOL    HW1 6436   1.516   6.665   0.288 -0.2945 -2.2944  0.3486
 1665SOL    HW2 6437   1.550   6.630   0.432 -1.2714 -0.3111  1.0861
 1666SOL     OW 6438   3.583   3.065  11.186 -0.1766 -1.0697  0.3472
 1666SOL    HW1 6439   3.632   3.135  11.143 -0.1537 -0.2363  1.7015
 1666SOL    HW2 6440   3.493   3.078  11.156 -0.0510 -0.9130  0.0270
 1667SOL     OW 6441   2.868   5.997   4.104  0.2372 -0.6826  0.0546
 1667SOL    HW1 6442   2.807   6.023   4.035 -0.6024  0.4522  1.1696
 1667SOL    HW2 6443   2.917   5.924   4.066 -2.0105 -1.8579 -0.8226
 1668SOL     OW 6444   0.926   4.260  12.370  0.2815 -0.0408 -0.2338
 1668SOL    HW1 6445   0.946   4.325  12.302  2.9880  0.6159  1.0562
 1668SOL    HW2 6446   0.935   4.176  12.325  0.9641  0.3965 -0.9578
 1669SOL     OW 6447   1.026   1.478  12.351 -0.3278 -0.2033  0.5757
 1669SOL    HW1 6448   0.932   1.481  12.336 -0.2121  0.9823 -0.0546
 1669SOL    HW2 6449   1.054   1.570  12.344  0.8564 -0.5266  0.8561
 1670SOL     OW 6450   0.599   4.945   3.868  0.0435  0.0569 -0.7920
 1670SOL    HW1 6451   0.594   4.878   3.800  0.1863 -0.4370 -0.3196
 1670SOL    HW2 6452   0.631   5.023   3.822 -0.1465 -0.1850 -1.3477
 1671SOL     OW 6453   0.891   4.891  10.509 -0.3707  0.1099  0.0023
 1671SOL    HW1 6454   0.846   4.902  10.593  0.9062 -0.8918  0.8613
 1671SOL    HW2 6455   0.925   4.802  10.511  0.8195  0.4999 -1.0074
 1672SOL     OW 6456   3.499   4.294   0.646  0.1416 -0.6235  0.1311
 1672SOL    HW1 6457   3.548   4.286   0.727 -0.8157  1.4006  0.9839
 1672SOL    HW2 6458   3.407   4.301   0.673 -0.1411  0.8567 -1.0138
 1673SOL     OW 6459   5.319   2.619   1.487  0.3571 -0.5951  0.6449
 1673SOL    HW1 6460   5.249   2.623   1.422 -0.0475  1.5007  1.1346
 1673SOL    HW2 6461   5.364   2.536   1.470 -0.7599 -0.8588 -1.2119
 1674SOL     OW 6462   1.860   5.739  10.539 -0.6928  0.0617 -0.6889
 1674SOL    HW1 6463   1.952   5.758  10.520 -0.5278 -0.2985 -0.2556
 1674SOL    HW2 6464   1.822   5.823  10.561 -0.1600  0.0228  0.4109
 1675SOL     OW 6465   7.564   1.084   0.971  0.0851  0.2677 -0.3502
 1675SOL    HW1 6466   7.551   1.133   1.053 -2.4578  1.1400 -1.1840
 1675SOL    HW2 6467   7.539   1.146   0.902 -0.1242 -1.2106 -1.6432
 1676SOL     OW 6468   2.794   7.218   9.286  0.1521 -0.3358  0.0424
 1676SOL    HW1 6469   2.853   7.163   9.234 -0.8752 -0.5058 -0.9985
 1676SOL    HW2 6470   2.716   7.163   9.298 -0.3934  0.4350  0.0575
 1677SOL     OW 6471   7.456   6.835   1.591 -0.0389 -0.7306 -0.0338
 1677SOL    HW1 6472   7.373   6.798   1.622 -0.6347  1.4791  1.1782
 1677SOL    HW2 6473   7.433   6.922   1.559  1.9829  0.5630  1.7698
 1678SOL     OW 6474   2.280   3.269   0.036  0.1717  0.6718  0.0755
 1678SOL    HW1 6475   2.214   3.310   0.093 -0.0543  0.7915 -0.2683
 1678SOL    HW2 6476   2.244   3.183   0.015  0.7661  0.1738  1.0091
 1679SOL     OW 6477   3.633   1.456   4.210 -0.2644 -0.1359  0.2981
 1679SOL    HW1 6478   3.692   1.405   4.266  0.0360 -0.9900 -0.7655
 1679SOL    HW2 6479   3.546   1.438   4.244 -0.0128  0.2351  1.1747
 1680SOL     OW 6480   4.683   1.763   3.839  0.0088  0.0619  0.3398
 1680SOL    HW1 6481   4.769   1.804   3.825  0.8784 -2.1893 -1.9157
 1680SOL    HW2 6482   4.620   1.830   3.814  1.2477  0.9207 -0.6190
 1681SOL     OW 6483   5.685   1.271   8.092 -0.4312 -0.0177 -0.3110
 1681SOL    HW1 6484   5.779   1.259   8.074 -0.3408  1.0877 -0.6114
 1681SOL    HW2 6485   5.665   1.204   8.157  0.6632 -0.0018  0.0608
 1682SOL     OW 6486   6.445   2.508   8.363 -0.3832 -0.2578  0.4167
 1682SOL    HW1 6487   6.527   2.460   8.373  0.0575  0.2591 -0.5192
 1682SOL    HW2 6488   6.397   2.460   8.296 -0.1627  0.2913 -0.1529
 1683SOL     OW 6489   0.994   6.720   2.969 -0.1088  0.1443 -0.0222
 1683SOL    HW1 6490   1.067   6.757   3.019 -0.1635  0.5463 -0.2284
 1683SOL    HW2 6491   1.030   6.705   2.882  0.4795 -2.1968  0.5681
 1684SOL     OW 6492   2.614   1.075   5.856  0.0359 -0.9059  0.2329
 1684SOL    HW1 6493   2.677   1.146   5.841 -1.7353  0.9151  0.9946
 1684SOL    HW2 6494   2.546   1.089   5.791 -0.4101 -1.8679  0.4673
 1685SOL     OW 6495   7.637   5.430  10.063 -0.0853 -0.0046  0.2536
 1685SOL    HW1 6496   7.701   5.444   9.993 -1.3903  2.8780 -0.5366
 1685SOL    HW2 6497   7.683   5.455  10.143  0.1687  0.9179 -0.1641
 1686SOL     OW 6498   2.152   5.525   4.680  0.3319  0.5870  0.2295
 1686SOL    HW1 6499   2.112   5.491   4.600 -1.2458  1.6490  0.5154
 1686SOL    HW2 6500   2.192   5.607   4.653  0.3137  0.6530  0.4079
 1687SOL     OW 6501   1.832   6.994  10.426 -0.3585 -0.2513  0.3840
 1687SOL    HW1 6502   1.886   7.034  10.494 -0.5103  0.6097  0.0160
 1687SOL    HW2 6503   1.802   7.068  10.373 -2.5822 -0.5878  1.0442
 1688SOL     OW 6504   1.456   2.469   8.906  0.2784 -0.1282  0.2839
 1688SOL    HW1 6505   1.407   2.469   8.989  1.6003  0.9991  1.1168
 1688SOL    HW2 6506   1.500   2.384   8.904  0.1627 -0.2016  0.6935
 1689SOL     OW 6507   1.962   5.146   3.420 -0.2184  0.3250  0.2270
 1689SOL    HW1 6508   2.028   5.081   3.442  0.7524  1.0812 -0.3595
 1689SOL    HW2 6509   2.010   5.229   3.417 -1.1081  0.8348 -0.6205
 1690SOL     OW 6510   4.320   3.352  11.609  0.5878  0.0817  0.1696
 1690SOL    HW1 6511   4.407   3.378  11.641  0.1132 -0.0682  1.6543
 1690SOL    HW2 6512   4.331   3.260  11.585  1.0966  0.3513 -0.6917
 1691SOL     OW 6513   7.204   5.525   8.485 -0.2011 -0.7516  0.4135
 1691SOL    HW1 6514   7.155   5.514   8.566  1.1235 -1.0210  1.2174
 1691SOL    HW2 6515   7.238   5.614   8.489  1.5812 -1.4186  1.1899
 1692SOL     OW 6516   5.083   5.345   2.727  0.6977 -0.5185 -0.0246
 1692SOL    HW1 6517   5.150   5.316   2.789  0.3132 -1.9409 -0.2386
 1692SOL    HW2 6518   5.012   5.379   2.782  1.2737  0.3425  0.2199
 1693SOL     OW 6519   5.114   3.334   4.846 -0.3941 -0.0998  1.0860
 1693SOL    HW1 6520   5.043   3.396   4.864 -0.0925  0.3966  0.5979
 1693SOL    HW2 6521   5.078   3.249   4.869 -1.2978  0.1006  0.4452
 1694SOL     OW 6522   5.304   1.659   2.442  0.1973 -0.2544 -0.1639
 1694SOL    HW1 6523   5.329   1.567   2.447  0.2107 -0.3687 -1.9826
 1694SOL    HW2 6524   5.302   1.679   2.349  0.4591  1.6749  0.2092
 1695SOL     OW 6525   6.173   3.078   4.061  0.2582  0.4303  0.1355
 1695SOL    HW1 6526   6.092   3.031   4.044  1.0797 -0.8378 -0.4377
 1695SOL    HW2 6527   6.145   3.164   4.092 -1.3355 -0.8697  2.5919
 1696SOL     OW 6528   1.652   6.749   2.430 -0.0933 -0.4567  0.1940
 1696SOL    HW1 6529   1.588   6.731   2.361  3.0911  0.2662 -3.2668
 1696SOL    HW2 6530   1.702   6.668   2.438  0.5376 -0.0471  0.4675
 1697SOL     OW 6531   4.245   2.865   0.912 -0.0062 -0.5730  0.3375
 1697SOL    HW1 6532   4.291   2.894   0.833 -1.2056 -1.4352 -0.7229
 1697SOL    HW2 6533   4.303   2.890   0.984  1.2770 -0.0512 -0.8282
 1698SOL     OW 6534   5.378   0.256   1.291 -0.0907 -0.1002  0.4338
 1698SOL    HW1 6535   5.439   0.182   1.285 -0.2509 -0.4348  2.3444
 1698SOL    HW2 6536   5.433   0.334   1.281  0.1714 -0.4263 -0.9474
 1699SOL     OW 6537   7.702   7.706   8.728 -0.1178  0.0306 -0.5469
 1699SOL    HW1 6538   7.721   7.673   8.641  0.2859  1.2377 -0.9417
 1699SOL    HW2 6539   7.787   7.729   8.765 -0.3649  0.5343 -0.2703
 1700SOL     OW 6540   4.003   5.912   9.385 -0.2839 -0.1016 -0.4945
 1700SOL    HW1 6541   4.001   6.007   9.396 -1.7749 -0.2443  0.7278
 1700SOL    HW2 6542   3.912   5.885   9.397  0.2472 -1.7649 -0.0353
 1701SOL     OW 6543   6.248   0.891  10.406  0.2366  0.2405 -0.7930
 1701SOL    HW1 6544   6.343   0.886  10.395  0.6895  3.5491  0.3562
 1701SOL    HW2 6545   6.217   0.936  10.327  0.0602  1.5560 -0.0140
 1702SOL     OW 6546   4.581   0.285  12.082  0.0568 -0.1517  0.2768
 1702SOL    HW1 6547   4.515   0.347  12.111 -0.3381  0.1196 -1.1323
 1702SOL    HW2 6548   4.581   0.216  12.149 -2.4453 -0.7165 -0.2140
 1703SOL     OW 6549   5.137   3.036  11.698  0.7458 -0.0208  0.1256
 1703SOL    HW1 6550   5.121   3.074  11.784 -1.8095 -0.3136 -0.1330
 1703SOL    HW2 6551   5.054   2.993  11.675  1.4573 -0.2326 -2.3376
 1704SOL     OW 6552   3.062   4.653  10.492 -0.2977  0.2808  0.1680
 1704SOL    HW1 6553   3.042   4.561  10.509 -0.5481  0.3688  0.3589
 1704SOL    HW2 6554   2.979   4.699  10.507  0.3260  0.8299  2.1920
 1705SOL     OW 6555   7.842   0.453  11.953  0.0138  0.0340 -0.0738
 1705SOL    HW1 6556   7.916   0.396  11.976 -0.5557 -0.5604  0.3039
 1705SOL    HW2 6557   7.765   0.400  11.970 -0.4880 -0.3157 -2.8494
 1706SOL     OW 6558   1.553   2.708   4.920  0.2106  0.1306 -0.2183
 1706SOL    HW1 6559   1.476   2.657   4.894  0.2622 -0.2338  0.3164
 1706SOL    HW2 6560   1.580   2.669   5.003  0.0157  1.2830  0.4147
 1707SOL     OW 6561   4.142   6.160   0.080 -0.0425  0.3389 -0.2483
 1707SOL    HW1 6562   4.052   6.135   0.099 -0.5614  1.1998 -1.4703
 1707SOL    HW2 6563   4.135   6.244   0.034  1.2993 -0.1772 -1.4753
 1708SOL     OW 6564   7.667   2.899   1.755  0.1946 -0.1645  0.0774
 1708SOL    HW1 6565   7.574   2.887   1.774 -0.2588  2.6041 -0.0122
 1708SOL    HW2 6566   7.669   2.939   1.668  1.2886  1.7460  0.9156
 1709SOL     OW 6567   7.692   7.359   6.050  0.4709  0.2990 -0.1731
 1709SOL    HW1 6568   7.629   7.382   5.982  0.0273  1.6678  0.6645
 1709SOL    HW2 6569   7.673   7.419   6.122  2.1053  0.1028  0.4687
 1710SOL     OW 6570   1.569   1.771  10.505 -0.5796 -0.0695  0.3431
 1710SOL    HW1 6571   1.621   1.713  10.561  0.5333  1.3397  0.8179
 1710SOL    HW2 6572   1.491   1.791  10.557 -0.2435  0.0669  0.7997
 1711SOL     OW 6573   4.059   1.535   4.189  0.4701 -1.1538 -0.2799
 1711SOL    HW1 6574   4.023   1.595   4.125 -0.9639 -1.0273  0.5948
 1711SOL    HW2 6575   4.153   1.533   4.171  0.6682  1.7280 -0.0276
 1712SOL     OW 6576   5.733   3.956   0.562  0.0334 -0.1639 -0.4101
 1712SOL    HW1 6577   5.647   3.998   0.563 -0.3244 -0.8713 -0.3872
 1712SOL    HW2 6578   5.724   3.884   0.499  1.0428  0.6116 -1.4798
 1713SOL     OW 6579   3.678   5.869   3.174 -0.4104  0.1018  0.4629
 1713SOL    HW1 6580   3.628   5.926   3.116 -0.4653  0.1116  0.5199
 1713SOL    HW2 6581   3.613   5.830   3.232 -0.3988 -0.1893  0.2800
 1714SOL     OW 6582   4.078   7.878   4.600  0.1702 -0.5612 -0.4123
 1714SOL    HW1 6583   4.128   7.922   4.668  1.7116 -1.7431 -0.7407
 1714SOL    HW2 6584   4.059   7.947   4.536 -1.6674  0.6740  1.3281
 1715SOL     OW 6585   5.562   6.825  10.356 -0.1701  0.1723 -0.6700
 1715SOL    HW1 6586   5.497   6.789  10.295 -0.3733  2.6686 -2.0562
 1715SOL    HW2 6587   5.591   6.749  10.407 -2.3847 -1.4561 -1.6490
 1716SOL     OW 6588   7.066   0.182   6.706  0.0247  0.1449  0.0657
 1716SOL    HW1 6589   7.080   0.115   6.773 -0.0269 -0.3484 -0.4039
 1716SOL    HW2 6590   6.977   0.213   6.721  0.4041  0.8376  0.9212
 1717SOL     OW 6591   6.832   1.715  11.292 -0.3049 -0.1894  0.0293
 1717SOL    HW1 6592   6.836   1.635  11.344  1.8632 -0.7595 -0.9168
 1717SOL    HW2 6593   6.771   1.771  11.340 -0.8255 -1.8715  1.4496
 1718SOL     OW 6594   5.095   1.634   9.506 -0.1294  0.1708 -0.5606
 1718SOL    HW1 6595   5.135   1.576   9.441  0.2958 -2.0070  1.4710
 1718SOL    HW2 6596   5.002   1.631   9.486 -0.0154 -0.5230 -1.0591
 1719SOL     OW 6597   7.903   4.963   6.899  0.2725  0.0468  0.1182
 1719SOL    HW1 6598   7.933   5.049   6.928  0.2469 -0.2974  1.2095
 1719SOL    HW2 6599   7.853   4.928   6.972 -0.8878 -0.3434 -0.8209
 1720SOL     OW 6600   4.603   7.126  11.348  0.5988 -0.7112 -0.3591
 1720SOL    HW1 6601   4.521   7.150  11.391  1.6893  0.8139  1.0070
 1720SOL    HW2 6602   4.609   7.186  11.274  0.6914 -0.4848 -0.1725
 1721SOL     OW 6603   1.372   7.070   3.448 -0.2259 -0.3231  0.6133
 1721SOL    HW1 6604   1.388   6.983   3.485 -0.8482 -0.4328  0.6336
 1721SOL    HW2 6605   1.440   7.126   3.488  0.2226 -0.8097  0.5385
 1722SOL     OW 6606   0.577   2.959   2.469  0.1668  0.9042 -0.3537
 1722SOL    HW1 6607   0.506   2.931   2.527  0.2231  1.1483 -0.1678
 1722SOL    HW2 6608   0.655   2.914   2.502  0.0414  0.3796 -0.7550
 1723SOL     OW 6609   7.627   5.719  11.378  0.6247 -0.4461 -0.1360
 1723SOL    HW1 6610   7.546   5.694  11.333  0.8188 -0.1303 -0.6708
 1723SOL    HW2 6611   7.690   5.652  11.353  0.9803  0.2105 -1.0873
 1724SOL     OW 6612   1.473   3.617   4.800  0.2617 -0.0473 -0.4671
 1724SOL    HW1 6613   1.492   3.611   4.894  0.1624  0.1096 -0.4382
 1724SOL    HW2 6614   1.459   3.526   4.773  0.3012 -0.0938 -0.3329
 1725SOL     OW 6615   5.702   3.735  10.762  0.0905  0.1181 -0.1702
 1725SOL    HW1 6616   5.611   3.750  10.788  0.6639  3.9663  0.2098
 1725SOL    HW2 6617   5.700   3.734  10.666 -0.4068 -0.4116 -0.1582
 1726SOL     OW 6618   4.279   5.568  10.683  0.7128 -0.2832  0.2200
 1726SOL    HW1 6619   4.340   5.542  10.614  0.2803 -1.7852  0.3865
 1726SOL    HW2 6620   4.195   5.531  10.657  0.3450 -0.0963  1.0927
 1727SOL     OW 6621   0.512   6.734   7.703 -0.1633  0.1311 -0.4387
 1727SOL    HW1 6622   0.425   6.725   7.740  0.1625  0.0466  0.3275
 1727SOL    HW2 6623   0.537   6.644   7.680 -0.2538  0.1476 -0.6028
 1728SOL     OW 6624   2.776   5.680   6.544 -0.3742 -0.4610 -0.0307
 1728SOL    HW1 6625   2.867   5.651   6.531 -0.0996 -0.4999  1.7453
 1728SOL    HW2 6626   2.738   5.678   6.456  1.6367  0.5820 -1.0040
 1729SOL     OW 6627   5.322   7.235   2.723 -0.1212  0.0638 -0.0599
 1729SOL    HW1 6628   5.264   7.199   2.790  1.4824 -0.0587  1.3134
 1729SOL    HW2 6629   5.395   7.174   2.719 -0.5451 -0.3678 -2.5558
 1730SOL     OW 6630   1.519   0.631   8.592 -0.4478 -0.0928 -0.0024
 1730SOL    HW1 6631   1.463   0.556   8.573  1.5146 -1.0829 -2.4453
 1730SOL    HW2 6632   1.541   0.667   8.507  1.7607  0.8806  0.8909
 1731SOL     OW 6633   3.066   0.715   5.599 -0.1540  0.4173 -0.0211
 1731SOL    HW1 6634   3.159   0.698   5.585  0.0274  0.5507  0.9874
 1731SOL    HW2 6635   3.028   0.712   5.511  0.7098 -0.1648 -0.3909
 1732SOL     OW 6636   3.965   2.342   2.328  0.1929 -0.1677  0.2466
 1732SOL    HW1 6637   4.059   2.362   2.322  0.0283  0.7817  0.5489
 1732SOL    HW2 6638   3.949   2.279   2.259  1.1547 -0.7216  0.5160
 1733SOL     OW 6639   0.207   3.496   6.884 -0.1723 -0.6053  0.6548
 1733SOL    HW1 6640   0.234   3.481   6.793  0.3899 -1.0375  0.8905
 1733SOL    HW2 6641   0.199   3.409   6.922  3.6186 -0.5110  2.1790
 1734SOL     OW 6642   1.470   3.356  10.794  0.7142 -0.2116 -0.1228
 1734SOL    HW1 6643   1.449   3.312  10.712  0.0689  2.0237 -1.2431
 1734SOL    HW2 6644   1.494   3.445  10.767 -1.5424  1.2244  2.2417
 1735SOL     OW 6645   2.324   7.821   1.431  0.0783  0.0037  0.3385
 1735SOL    HW1 6646   2.349   7.737   1.469  0.1953 -0.3743 -0.5392
 1735SOL    HW2 6647   2.252   7.799   1.371 -1.4918  0.8702  1.8313
 1736SOL     OW 6648   3.438   2.900   5.952  0.7816  0.0905  0.0992
 1736SOL    HW1 6649   3.345   2.883   5.937  1.0538  0.7218 -3.0493
 1736SOL    HW2 6650   3.444   2.995   5.955  1.5206  0.1554 -1.9821
 1737SOL     OW 6651   3.602   5.241   3.693 -0.1023  0.2986 -0.6809
 1737SOL    HW1 6652   3.569   5.167   3.641 -0.0901 -0.4891  0.4110
 1737SOL    HW2 6653   3.528   5.266   3.748  0.6257 -0.4595  0.6660
 1738SOL     OW 6654   4.660   3.696  11.141  0.5152  0.8410 -0.4260
 1738SOL    HW1 6655   4.678   3.615  11.188  0.2960  0.7110 -0.5641
 1738SOL    HW2 6656   4.735   3.753  11.161 -0.0823  1.1947  0.9496
 1739SOL     OW 6657   6.262   1.132   4.165 -0.4119 -0.4749 -0.7125
 1739SOL    HW1 6658   6.187   1.119   4.223 -1.1859  1.0159 -1.3479
 1739SOL    HW2 6659   6.227   1.181   4.091  1.7865  3.2781  0.4919
 1740SOL     OW 6660   7.035   4.527   9.697  0.8907 -0.9130 -0.6427
 1740SOL    HW1 6661   6.964   4.554   9.639  2.8068  0.5695 -2.4936
 1740SOL    HW2 6662   7.103   4.495   9.637  2.1788 -1.2792  0.9497
 1741SOL     OW 6663   6.546   5.666  12.420 -0.5888 -0.1510  0.2660
 1741SOL    HW1 6664   6.622   5.701  12.372 -1.2929 -0.2957 -1.0136
 1741SOL    HW2 6665   6.579   5.587  12.462  0.3668  0.6441  1.0737
 1742SOL     OW 6666   2.484   2.748   0.791 -0.3867  0.2493 -0.2758
 1742SOL    HW1 6667   2.440   2.664   0.798 -0.1913  0.2176  0.6610
 1742SOL    HW2 6668   2.446   2.801   0.860  0.8332  0.3104  0.3796
 1743SOL     OW 6669   1.212   5.216   2.469 -0.0893 -0.3189 -0.5122
 1743SOL    HW1 6670   1.205   5.295   2.415  0.6977  0.0493 -0.0796
 1743SOL    HW2 6671   1.275   5.161   2.423  0.4867 -0.0580 -0.0283
 1744SOL     OW 6672   3.260   6.123  10.410 -0.0160  0.7494  0.1303
 1744SOL    HW1 6673   3.336   6.165  10.450 -0.4224  1.3436  0.2924
 1744SOL    HW2 6674   3.187   6.143  10.469  0.2250 -2.5379  1.7337
 1745SOL     OW 6675   6.685   5.650   7.919 -0.1508 -0.3014 -0.0450
 1745SOL    HW1 6676   6.760   5.659   7.861 -0.3979  0.4571 -0.2550
 1745SOL    HW2 6677   6.616   5.612   7.864  0.1322 -1.1852  0.1987
 1746SOL     OW 6678   5.979   2.744   1.373 -0.4214 -0.1133 -0.0968
 1746SOL    HW1 6679   6.008   2.669   1.322  0.8772  0.5958 -0.4510
 1746SOL    HW2 6680   5.909   2.710   1.429  0.5477 -1.7243  0.1971
 1747SOL     OW 6681   7.860   2.676   4.004 -0.4278 -0.0372 -0.3848
 1747SOL    HW1 6682   7.807   2.736   3.952 -0.4043 -0.7952 -1.3325
 1747SOL    HW2 6683   7.896   2.729   4.075 -0.6766  0.9785 -1.0054
 1748SOL     OW 6684   0.886   7.434   3.012 -0.4357 -0.3175  0.0651
 1748SOL    HW1 6685   0.969   7.424   3.057 -0.6297  0.6493  0.6876
 1748SOL    HW2 6686   0.827   7.470   3.079 -2.0113 -3.0915  0.2943
 1749SOL     OW 6687   4.353   7.336   5.795 -0.0033  0.1052  0.0955
 1749SOL    HW1 6688   4.363   7.356   5.888  0.6636  0.0682  0.0363
 1749SOL    HW2 6689   4.439   7.304   5.767 -0.7868 -2.0677 -0.0194
 1750SOL     OW 6690   6.506   2.127   2.017  0.3886 -0.0870  0.2420
 1750SOL    HW1 6691   6.500   2.035   2.043  1.8238 -1.0360 -2.4593
 1750SOL    HW2 6692   6.415   2.159   2.020 -0.4935 -2.2631 -0.9090
 1751SOL     OW 6693   2.461   6.663   4.241 -0.1879 -0.0308 -0.1685
 1751SOL    HW1 6694   2.425   6.690   4.157  1.8796  1.6277 -0.5949
 1751SOL    HW2 6695   2.529   6.599   4.219 -1.6480 -1.9415  0.5199
 1752SOL     OW 6696   7.455   4.062   6.600  0.1851  0.2912  0.2622
 1752SOL    HW1 6697   7.429   3.990   6.657  1.8073 -1.0621 -0.5974
 1752SOL    HW2 6698   7.547   4.078   6.622  1.2944 -1.1682 -2.7035
 1753SOL     OW 6699   0.532   7.082   2.558  0.4078 -0.0415 -0.2986
 1753SOL    HW1 6700   0.564   7.034   2.481  1.1667 -0.3343  0.1895
 1753SOL    HW2 6701   0.571   7.169   2.548  0.4448 -0.0562 -0.2823
 1754SOL     OW 6702   6.824   7.526   6.264  0.0155  0.7129 -1.0448
 1754SOL    HW1 6703   6.908   7.482   6.254 -0.9741 -1.3934 -0.5974
 1754SOL    HW2 6704   6.840   7.616   6.234  2.9723  1.0548  1.1288
 1755SOL     OW 6705   5.935   6.517   4.338  0.3577  0.2569 -0.2305
 1755SOL    HW1 6706   5.954   6.441   4.394  0.4120 -0.9037 -1.7758
 1755SOL    HW2 6707   6.020   6.539   4.299 -0.0863 -0.4304 -1.6363
 1756SOL     OW 6708   7.979   2.198  12.152 -0.1874  0.0488  0.4099
 1756SOL    HW1 6709   7.951   2.108  12.171  0.6695 -0.6367 -1.3695
 1756SOL    HW2 6710   7.922   2.252  12.207 -1.3684 -1.5250  0.8362
 1757SOL     OW 6711   1.427   6.305   7.565  0.1573 -0.0699  0.2156
 1757SOL    HW1 6712   1.497   6.249   7.531  0.4309 -0.4286  1.3236
 1757SOL    HW2 6713   1.376   6.247   7.622 -0.8420  0.2781 -0.2996
 1758SOL     OW 6714   3.460   6.379   2.892  0.2713 -0.0954 -0.2115
 1758SOL    HW1 6715   3.542   6.376   2.842 -0.1224 -1.1926 -0.8391
 1758SOL    HW2 6716   3.477   6.440   2.964  1.8509 -0.7908  0.0390
 1759SOL     OW 6717   7.556   3.868   4.124 -0.4324  0.3943  0.7995
 1759SOL    HW1 6718   7.649   3.863   4.146 -0.6568 -1.1048  1.5542
 1759SOL    HW2 6719   7.514   3.902   4.204 -0.5290  1.1761  0.4236
 1760SOL     OW 6720   7.278   3.604   1.783  0.3720  0.7622  0.3050
 1760SOL    HW1 6721   7.276   3.526   1.728  1.1428  0.8782  0.0879
 1760SOL    HW2 6722   7.198   3.651   1.762 -0.0760  0.0478  0.4050
 1761SOL     OW 6723   4.835   4.458   0.131  0.1211  0.4173  0.0014
 1761SOL    HW1 6724   4.811   4.551   0.135  1.3007  0.8055 -1.1808
 1761SOL    HW2 6725   4.908   4.450   0.193  0.2020  0.3380 -0.1054
 1762SOL     OW 6726   3.362   6.658   8.144 -0.4422  0.6286 -0.7494
 1762SOL    HW1 6727   3.286   6.604   8.165 -0.0399 -0.0221 -0.9510
 1762SOL    HW2 6728   3.334   6.710   8.068 -0.3295 -0.3862 -1.4945
 1763SOL     OW 6729   7.069   7.354   3.255 -0.2232 -0.3923 -0.1905
 1763SOL    HW1 6730   7.114   7.411   3.192 -0.3665 -1.2456 -1.1028
 1763SOL    HW2 6731   7.068   7.404   3.336  3.0198 -0.5836  0.1180
 1764SOL     OW 6732   4.601   5.752   5.887 -0.1635  0.1121  0.4025
 1764SOL    HW1 6733   4.522   5.708   5.918 -2.4854  0.8130 -3.7214
 1764SOL    HW2 6734   4.649   5.684   5.839  0.4948  0.2676  0.8232
 1765SOL     OW 6735   5.113   2.446  10.868  0.1962 -0.1543 -0.6096
 1765SOL    HW1 6736   5.024   2.421  10.847  0.4282 -1.8615  0.2280
 1765SOL    HW2 6737   5.104   2.518  10.931 -0.6268 -0.8262  0.0657
 1766SOL     OW 6738   4.222   2.141   8.679 -0.4654 -0.2555  0.2424
 1766SOL    HW1 6739   4.158   2.106   8.742  1.8535 -1.5934  2.0081
 1766SOL    HW2 6740   4.298   2.083   8.688  1.5787  2.1169 -0.6662
 1767SOL     OW 6741   7.096   4.525  12.351  0.0682 -0.2300 -0.1454
 1767SOL    HW1 6742   7.058   4.506  12.265 -0.1138 -1.5983  0.2028
 1767SOL    HW2 6743   7.038   4.480  12.412  0.2894  0.5990  0.6915
 1768SOL     OW 6744   5.773   6.663   1.134 -0.0657  0.1411  0.3909
 1768SOL    HW1 6745   5.776   6.684   1.041 -0.2685 -1.0668  0.0888
 1768SOL    HW2 6746   5.776   6.567   1.137 -0.2466  0.1544  1.6199
 1769SOL     OW 6747   5.931   0.689   8.796 -0.0281  0.5538 -0.0754
 1769SOL    HW1 6748   6.017   0.726   8.816 -0.3690  0.5213  1.5345
 1769SOL    HW2 6749   5.870   0.761   8.810 -0.4969 -0.0608  1.1995
 1770SOL     OW 6750   2.405   5.354   3.787 -0.1837 -0.0868  0.3650
 1770SOL    HW1 6751   2.457   5.429   3.814 -1.2487  0.6827  0.3626
 1770SOL    HW2 6752   2.391   5.367   3.693  0.7053 -0.9860  0.0892
 1771SOL     OW 6753   7.169   3.383  11.809  0.3340 -0.3582  0.2870
 1771SOL    HW1 6754   7.114   3.379  11.731 -0.3477  0.7410  0.6907
 1771SOL    HW2 6755   7.240   3.443  11.785  0.4819 -0.5248  0.3036
 1772SOL     OW 6756   1.903   5.719   7.719  0.0807  0.4318  0.0964
 1772SOL    HW1 6757   1.963   5.751   7.651  0.4834 -0.8251 -0.1690
 1772SOL    HW2 6758   1.855   5.648   7.676  0.1034 -0.1569  1.0278
 1773SOL     OW 6759   4.236   5.335   6.076 -0.0697  0.0407  0.3568
 1773SOL    HW1 6760   4.320   5.303   6.043 -1.2558  0.6089 -3.9019
 1773SOL    HW2 6761   4.235   5.428   6.051 -1.1696  0.5964  2.2811
 1774SOL     OW 6762   7.559   2.219  12.343 -0.0862  0.5509  0.4001
 1774SOL    HW1 6763   7.654   2.206  12.348 -0.0665  0.5023 -0.0563
 1774SOL    HW2 6764   7.528   2.150  12.284 -0.1560  1.6760 -0.9280
 1775SOL     OW 6765   4.460   5.748   6.644 -0.0619  0.1473 -0.3233
 1775SOL    HW1 6766   4.539   5.702   6.673 -0.1724 -0.0351 -0.3102
 1775SOL    HW2 6767   4.488   5.839   6.633 -0.0968  0.2896  0.6768
 1776SOL     OW 6768   7.052   5.086   4.419  0.0270 -0.4697  0.3032
 1776SOL    HW1 6769   6.972   5.138   4.424 -1.1793 -1.9173 -2.2678
 1776SOL    HW2 6770   7.121   5.146   4.446 -1.5654  1.7182 -0.2237
 1777SOL     OW 6771   4.672   7.496   5.335 -0.1235  0.0507 -0.1400
 1777SOL    HW1 6772   4.733   7.443   5.283 -0.5962 -1.7371  1.0366
 1777SOL    HW2 6773   4.636   7.435   5.398 -1.3637  1.6306  0.7388
 1778SOL     OW 6774   2.710   1.279   0.415  0.0050 -0.0542  0.0554
 1778SOL    HW1 6775   2.690   1.228   0.337  0.6987  1.1615 -0.9484
 1778SOL    HW2 6776   2.625   1.314   0.444 -0.0891  0.6329 -0.9948
 1779SOL     OW 6777   7.831   5.260   7.535 -0.0277 -0.3599  0.2295
 1779SOL    HW1 6778   7.847   5.168   7.514  1.5560 -0.0520 -0.0821
 1779SOL    HW2 6779   7.911   5.289   7.579 -0.0042  1.1773 -0.7401
 1780SOL     OW 6780   7.075   4.496  11.557  0.1138 -0.4891 -0.2334
 1780SOL    HW1 6781   7.091   4.433  11.628  0.4469 -0.7624 -0.5473
 1780SOL    HW2 6782   7.160   4.536  11.541 -0.1740  0.3151  0.2155
 1781SOL     OW 6783   0.521   5.980   9.131 -0.5401 -0.9579  0.4743
 1781SOL    HW1 6784   0.482   6.058   9.172 -0.0460 -0.1821 -0.4843
 1781SOL    HW2 6785   0.461   5.909   9.153 -1.6724 -0.0838  0.3180
 1782SOL     OW 6786   2.549   0.815   1.180  0.1237 -0.4090 -0.4769
 1782SOL    HW1 6787   2.626   0.758   1.180  0.2963 -0.2122  1.1246
 1782SOL    HW2 6788   2.579   0.896   1.140  0.6139 -0.5113 -0.3235
 1783SOL     OW 6789   2.471   1.345   3.464  0.2455  0.1899  0.2124
 1783SOL    HW1 6790   2.462   1.302   3.379  1.2262 -0.7504  0.5736
 1783SOL    HW2 6791   2.564   1.368   3.470  0.3918 -0.6444  1.4483
 1784SOL     OW 6792   1.799   7.111   4.543  0.0528 -0.0022  0.2884
 1784SOL    HW1 6793   1.873   7.115   4.604 -0.3551 -0.2501  0.8074
 1784SOL    HW2 6794   1.840   7.100   4.457  0.6719  1.2910  0.3916
 1785SOL     OW 6795   7.925   0.045   0.894 -0.3394  0.2543 -0.0222
 1785SOL    HW1 6796   7.970  -0.036   0.919  2.9134  1.7967 -0.3427
 1785SOL    HW2 6797   7.875   0.021   0.817 -0.8110 -1.7973  0.8368
 1786SOL     OW 6798   2.697   2.449   3.777 -0.1198  0.4712  0.1123
 1786SOL    HW1 6799   2.751   2.439   3.698 -0.6445  0.4232 -0.2467
 1786SOL    HW2 6800   2.720   2.535   3.811  2.0574 -0.5183  1.4108
 1787SOL     OW 6801   3.165   2.014   1.984  0.2124  0.3148 -0.5844
 1787SOL    HW1 6802   3.130   2.035   1.898  0.2174 -0.1661 -0.7052
 1787SOL    HW2 6803   3.186   1.921   1.980  0.4715  0.3492 -0.1539
 1788SOL     OW 6804   3.661   2.776   6.336 -0.0274  0.0521 -0.0744
 1788SOL    HW1 6805   3.622   2.734   6.259  0.1374  1.4904 -0.9738
 1788SOL    HW2 6806   3.613   2.858   6.345  1.4665  0.9380 -0.0030
 1789SOL     OW 6807   1.545   0.979   8.426 -0.1235 -0.0848  0.2381
 1789SOL    HW1 6808   1.450   0.972   8.418  0.0212 -0.6872 -1.3252
 1789SOL    HW2 6809   1.569   1.046   8.362  0.5026  0.1678  0.7285
 1790SOL     OW 6810   5.197   3.983   8.469 -0.4296  0.0494 -0.3589
 1790SOL    HW1 6811   5.253   3.992   8.546 -1.7397 -0.9459  0.7551
 1790SOL    HW2 6812   5.234   3.908   8.422 -0.8130 -0.6290  0.3915
 1791SOL     OW 6813   5.056   2.389   4.590 -0.4474  0.0693  0.4635
 1791SOL    HW1 6814   5.141   2.417   4.556 -0.5068  0.0920  0.3349
 1791SOL    HW2 6815   4.992   2.425   4.529 -0.5326 -0.2171  0.3828
 1792SOL     OW 6816   3.523   6.320   4.509  0.2379 -0.0157  0.0617
 1792SOL    HW1 6817   3.440   6.360   4.538  0.7079 -0.6114  2.5049
 1792SOL    HW2 6818   3.515   6.314   4.414 -2.5433 -0.0966  0.2087
 1793SOL     OW 6819   4.088   4.630  10.851 -0.7459 -0.3402 -0.1053
 1793SOL    HW1 6820   4.160   4.691  10.835 -0.4279 -0.3175  1.2885
 1793SOL    HW2 6821   4.102   4.560  10.787 -0.3535  0.3912 -0.8393
 1794SOL     OW 6822   5.052   1.401   1.245  0.4170 -0.3085 -0.3193
 1794SOL    HW1 6823   5.120   1.337   1.226  0.0673 -1.1191  1.0497
 1794SOL    HW2 6824   4.975   1.349   1.269  0.0255  0.6053  0.5127
 1795SOL     OW 6825   2.187   6.721  12.083 -0.2034 -0.3284 -0.3775
 1795SOL    HW1 6826   2.104   6.768  12.080 -0.2377 -0.4033 -0.7397
 1795SOL    HW2 6827   2.163   6.630  12.063  0.0100 -0.2821 -0.8595
 1796SOL     OW 6828   7.293   3.866  11.140  0.1256 -0.3517 -0.1562
 1796SOL    HW1 6829   7.259   3.777  11.136 -0.1851 -0.2364 -0.0613
 1796SOL    HW2 6830   7.242   3.908  11.209 -0.0198  0.0268 -0.4955
 1797SOL     OW 6831   0.816   5.311   2.403 -0.0800  0.1123 -0.2803
 1797SOL    HW1 6832   0.756   5.237   2.408  0.4650 -0.2407  1.3999
 1797SOL    HW2 6833   0.810   5.340   2.311 -0.4921 -1.8253 -0.9035
 1798SOL     OW 6834   5.192   3.326   0.048  0.2901 -0.5094 -0.1535
 1798SOL    HW1 6835   5.126   3.266   0.013 -1.9958  1.8491 -0.1544
 1798SOL    HW2 6836   5.165   3.413   0.018  3.3772  0.6380 -0.0484
 1799SOL     OW 6837   0.151   2.605   7.872 -0.1342 -0.3571 -0.3312
 1799SOL    HW1 6838   0.239   2.643   7.869  0.1989 -0.9661  0.8935
 1799SOL    HW2 6839   0.139   2.579   7.964 -0.9797 -1.6802 -0.7805
 1800SOL     OW 6840   3.451   4.044   3.896 -0.0409  0.2633  0.7457
 1800SOL    HW1 6841   3.399   4.101   3.953 -1.9022  0.5428 -1.0972
 1800SOL    HW2 6842   3.388   3.980   3.863  0.5520  0.9855 -2.0727
 1801SOL     OW 6843   5.812   7.764  10.471 -0.1279 -0.1884  1.0586
 1801SOL    HW1 6844   5.776   7.695  10.414  0.1726  0.0534  0.5669
 1801SOL    HW2 6845   5.906   7.746  10.474  0.2551  1.2545 -0.5917
 1802SOL     OW 6846   6.317   7.287   9.915 -0.3353 -0.2637  0.0660
 1802SOL    HW1 6847   6.254   7.358   9.905  0.6519  0.5618 -0.4827
 1802SOL    HW2 6848   6.309   7.260  10.007 -0.4781  0.8006  0.3783
 1803SOL     OW 6849   1.739   1.608   2.544  0.3513 -0.1188  0.2803
 1803SOL    HW1 6850   1.821   1.656   2.560 -0.0478  1.1302 -1.1859
 1803SOL    HW2 6851   1.677   1.675   2.517 -0.4509 -1.3541 -1.0853
 1804SOL     OW 6852   4.076   3.281   5.077  1.0359 -0.1798 -0.2824
 1804SOL    HW1 6853   4.025   3.296   5.156  0.3195 -0.2756 -0.7225
 1804SOL    HW2 6854   4.046   3.197   5.043  1.5237 -0.2646 -0.5228
 1805SOL     OW 6855   0.484   0.847  10.538 -0.2233  0.9784  0.5240
 1805SOL    HW1 6856   0.533   0.768  10.517  0.8736  1.8377 -0.2896
 1805SOL    HW2 6857   0.470   0.889  10.453 -0.3290  1.9167  0.9977
 1806SOL     OW 6858   5.973   3.832   5.485 -0.1540  0.3172  0.5613
 1806SOL    HW1 6859   5.938   3.800   5.569  2.4358 -1.7627  0.9573
 1806SOL    HW2 6860   5.980   3.754   5.431  0.7874  1.2041 -0.6266
 1807SOL     OW 6861   0.390   1.027   2.125 -0.5660  0.3616 -0.3811
 1807SOL    HW1 6862   0.335   0.998   2.198 -1.8329  1.0020 -1.0474
 1807SOL    HW2 6863   0.371   1.120   2.117  2.2356  1.1040  0.6978
 1808SOL     OW 6864   4.145   2.796   3.080  0.1874 -0.2130 -0.1542
 1808SOL    HW1 6865   4.153   2.718   3.025  0.7777 -0.5751  0.4353
 1808SOL    HW2 6866   4.062   2.784   3.127 -0.6418  0.3974 -1.4037
 1809SOL     OW 6867   0.624   6.666   5.767  0.5140 -0.0293  0.2398
 1809SOL    HW1 6868   0.618   6.618   5.685  0.2643 -0.3884  0.4602
 1809SOL    HW2 6869   0.717   6.686   5.778  0.7059 -0.9867  0.4315
 1810SOL     OW 6870   6.066   6.016  12.433  0.1605  0.2801  0.3803
 1810SOL    HW1 6871   5.988   6.070  12.451 -1.1788 -1.1141 -0.9774
 1810SOL    HW2 6872   6.108   6.060  12.359 -0.4803 -0.0688 -0.2023
 1811SOL     OW 6873   3.046   5.703   6.446  0.6807 -0.4521 -0.3993
 1811SOL    HW1 6874   3.021   5.653   6.368  0.3976  0.0477 -0.6346
 1811SOL    HW2 6875   3.138   5.724   6.433  0.9363 -1.3337 -0.0652
 1812SOL     OW 6876   5.039   1.704  11.884 -0.0544  0.4737 -0.2056
 1812SOL    HW1 6877   5.000   1.791  11.887  1.0883  1.0745 -1.4812
 1812SOL    HW2 6878   5.133   1.721  11.877  0.0938 -0.8220 -1.8498
 1813SOL     OW 6879   6.984   1.958   6.959 -0.7698  0.3633 -0.0263
 1813SOL    HW1 6880   6.963   1.906   7.037 -0.3199 -0.7812 -0.6350
 1813SOL    HW2 6881   6.989   1.893   6.888 -1.8227  1.4478 -1.1435
 1814SOL     OW 6882   2.769   0.418   6.077 -0.0442  0.2120 -0.7389
 1814SOL    HW1 6883   2.756   0.413   5.983 -0.9927 -0.2887 -0.5905
 1814SOL    HW2 6884   2.861   0.442   6.087  0.6092 -1.6300 -1.7740
 1815SOL     OW 6885   6.212   4.679   3.347  0.3555  0.3333 -0.7149
 1815SOL    HW1 6886   6.288   4.635   3.310  0.8698  0.3100  0.3192
 1815SOL    HW2 6887   6.224   4.771   3.325  1.3795  0.5292  0.5293
 1816SOL     OW 6888   4.761   0.570   5.576  0.1015  0.6082  0.0489
 1816SOL    HW1 6889   4.815   0.498   5.607 -0.0125  0.8772  0.8858
 1816SOL    HW2 6890   4.712   0.533   5.502  0.2207 -0.1035  0.3190
 1817SOL     OW 6891   2.236   0.553   8.429 -0.4530  0.5348 -0.2457
 1817SOL    HW1 6892   2.218   0.511   8.512 -1.1618 -1.9587 -1.5666
 1817SOL    HW2 6893   2.161   0.532   8.373  0.9363  0.3088 -2.1533
 1818SOL     OW 6894   7.667   5.137   0.201  0.1404 -0.6335 -0.4036
 1818SOL    HW1 6895   7.648   5.149   0.295  0.8515  0.8091 -0.3975
 1818SOL    HW2 6896   7.582   5.134   0.159 -0.1816 -0.7995  0.2444
 1819SOL     OW 6897   7.623   0.650   9.721 -0.5625 -0.1908  0.6633
 1819SOL    HW1 6898   7.601   0.700   9.800 -1.5608  0.0404  0.2606
 1819SOL    HW2 6899   7.648   0.716   9.656  3.2922 -0.5013  1.5894
 1820SOL     OW 6900   6.570   2.272   9.951  0.3214 -0.1771  0.5513
 1820SOL    HW1 6901   6.567   2.185   9.990 -1.4392 -0.0034  0.9322
 1820SOL    HW2 6902   6.529   2.329  10.017  0.9886  0.8558  0.1061
 1821SOL     OW 6903   0.354   0.244  11.035  0.0333 -0.5727  0.1095
 1821SOL    HW1 6904   0.419   0.220  10.968  0.8204  0.2691  0.5398
 1821SOL    HW2 6905   0.271   0.248  10.988  0.5728  0.0279 -0.8366
 1822SOL     OW 6906   4.757   3.088  11.198 -0.6233  0.6331 -0.1424
 1822SOL    HW1 6907   4.800   3.148  11.259  1.1075  1.6984 -2.2528
 1822SOL    HW2 6908   4.776   3.001  11.233 -0.8978  1.2241  1.5605
 1823SOL     OW 6909   1.274   6.037   3.122 -0.5816  0.1602  0.0662
 1823SOL    HW1 6910   1.193   6.061   3.166 -0.9294  0.6451 -0.8217
 1823SOL    HW2 6911   1.260   5.946   3.095 -1.2807  0.5939 -1.0735
 1824SOL     OW 6912   3.668   6.212   5.403  0.6019 -0.0292  0.4115
 1824SOL    HW1 6913   3.692   6.297   5.441  1.0180 -0.0272  0.1549
 1824SOL    HW2 6914   3.635   6.232   5.316 -1.2448  0.0553  1.0851
 1825SOL     OW 6915   0.470   5.598  10.828  0.2163 -0.0036 -0.9784
 1825SOL    HW1 6916   0.470   5.693  10.814  1.0780  0.0236 -0.8699
 1825SOL    HW2 6917   0.559   5.571  10.803  0.3845 -0.5980  0.1995
 1826SOL     OW 6918   0.181   1.975   7.580 -0.1293  0.1456 -0.4907
 1826SOL    HW1 6919   0.195   2.062   7.617 -0.6230  0.3108 -0.6846
 1826SOL    HW2 6920   0.148   1.922   7.652  0.6466 -0.0205 -0.2448
 1827SOL     OW 6921   7.738   2.259   0.667  0.9601  0.1765  0.4212
 1827SOL    HW1 6922   7.697   2.309   0.738  0.4342  1.0231 -0.4642
 1827SOL    HW2 6923   7.812   2.312   0.639  0.6455  0.2712 -0.2489
 1828SOL     OW 6924   3.426   7.652  10.337  0.3355 -0.2251  0.0129
 1828SOL    HW1 6925   3.369   7.703  10.281  0.3267 -1.6342 -1.3274
 1828SOL    HW2 6926   3.384   7.566  10.343  1.0145 -0.5109  1.1227
 1829SOL     OW 6927   0.339   5.787   9.177 -0.1896  0.0841  0.1468
 1829SOL    HW1 6928   0.246   5.805   9.190 -0.0901 -0.6370  2.0778
 1829SOL    HW2 6929   0.367   5.745   9.258  1.7466 -0.0383 -0.5450
 1830SOL     OW 6930   0.540   3.236   2.406  0.0296  0.0117 -0.1358
 1830SOL    HW1 6931   0.601   3.280   2.464 -1.5401  0.8432  0.9454
 1830SOL    HW2 6932   0.546   3.144   2.431  0.5037  0.1447  0.2665
 1831SOL     OW 6933   7.857   5.240   8.628 -0.2939  0.2224 -0.5078
 1831SOL    HW1 6934   7.799   5.165   8.617 -1.0186  0.8589 -1.2541
 1831SOL    HW2 6935   7.945   5.205   8.614 -0.7101 -0.2791 -2.1252
 1832SOL     OW 6936   1.018   1.027   7.592 -0.1483  0.0007 -0.0033
 1832SOL    HW1 6937   1.055   1.115   7.582  1.4781 -0.5858  0.5641
 1832SOL    HW2 6938   1.003   1.017   7.686 -4.1782  1.0967 -0.3303
 1833SOL     OW 6939   6.373   7.726   5.641  0.3284  0.0085  0.3332
 1833SOL    HW1 6940   6.446   7.674   5.676 -0.9431 -1.4362  0.9753
 1833SOL    HW2 6941   6.328   7.665   5.582 -0.6787  0.7119  0.3685
 1834SOL     OW 6942   1.188   2.083   2.985 -0.2276 -0.0519 -0.6725
 1834SOL    HW1 6943   1.143   2.000   3.001 -1.4230  0.6381 -0.2401
 1834SOL    HW2 6944   1.274   2.059   2.952  0.2488 -1.5248  1.4040
 1835SOL     OW 6945   1.539   2.499  11.683  0.1003  0.6291 -0.3390
 1835SOL    HW1 6946   1.558   2.593  11.682 -0.4552  0.7449 -1.1439
 1835SOL    HW2 6947   1.445   2.494  11.702  0.1645  0.2241 -0.1158
 1836SOL     OW 6948   2.363   5.432   4.449 -0.2315  0.3478  0.2684
 1836SOL    HW1 6949   2.301   5.394   4.511  2.1364 -1.1997  1.8514
 1836SOL    HW2 6950   2.385   5.360   4.390  1.3450  0.3251  0.8444
 1837SOL     OW 6951   4.075   7.368   1.437  0.1352 -0.1157  0.3363
 1837SOL    HW1 6952   4.125   7.361   1.356 -0.3831  1.6993 -0.1911
 1837SOL    HW2 6953   3.991   7.328   1.418 -0.0115  0.3730 -0.0604
 1838SOL     OW 6954   5.499   3.248   1.176 -0.4294 -0.0101 -0.1361
 1838SOL    HW1 6955   5.506   3.341   1.194 -0.2879 -0.0536  0.0424
 1838SOL    HW2 6956   5.579   3.210   1.215  1.2406  0.2152 -3.0606
 1839SOL     OW 6957   1.449   2.043  11.502 -0.4287  0.5624  0.0961
 1839SOL    HW1 6958   1.481   1.959  11.536 -2.3873  0.1351  1.0342
 1839SOL    HW2 6959   1.527   2.087  11.469  0.8898 -0.9432  1.0627
 1840SOL     OW 6960   1.957   2.865  11.494 -0.4395  0.3956  0.5362
 1840SOL    HW1 6961   1.925   2.860  11.584 -0.1646 -1.1619  0.5768
 1840SOL    HW2 6962   2.022   2.795  11.488 -1.2067 -0.2286 -1.1576
 1841SOL     OW 6963   6.968   3.503   6.995  0.0796 -0.3161 -0.3800
 1841SOL    HW1 6964   6.885   3.543   6.970 -0.0566 -0.2455  0.1671
 1841SOL    HW2 6965   7.033   3.573   6.984 -0.1687  0.0835  0.6452
 1842SOL     OW 6966   3.183   1.182  10.115  0.5791 -0.1976 -0.2047
 1842SOL    HW1 6967   3.168   1.231  10.034 -0.6146  0.8893  0.6464
 1842SOL    HW2 6968   3.180   1.247  10.184  0.6648 -1.2324  0.8047
 1843SOL     OW 6969   4.846   4.286  11.004 -0.1086 -0.3607  0.2297
 1843SOL    HW1 6970   4.885   4.286  10.916 -1.0058 -4.3714 -0.3793
 1843SOL    HW2 6971   4.920   4.298  11.063  1.3977 -2.6124 -1.0396
 1844SOL     OW 6972   7.600   4.114   2.197  0.5500 -0.4432  0.0162
 1844SOL    HW1 6973   7.651   4.160   2.131  0.5261  0.0800  0.3549
 1844SOL    HW2 6974   7.643   4.136   2.280  1.6558 -2.4940  0.0518
 1845SOL     OW 6975   3.263   4.101   4.621 -0.0110  0.1640 -0.4522
 1845SOL    HW1 6976   3.248   4.007   4.620  1.5758 -0.1183 -0.8719
 1845SOL    HW2 6977   3.176   4.139   4.625 -0.7271 -1.3046 -1.2098
 1846SOL     OW 6978   7.124   2.099   5.183  0.2969 -1.0502 -0.2032
 1846SOL    HW1 6979   7.137   2.135   5.270  0.9264 -0.9398 -0.3395
 1846SOL    HW2 6980   7.030   2.108   5.167 -0.0449 -2.2024  0.9591
 1847SOL     OW 6981   1.364   7.565   9.304  0.3422 -0.6798  0.1238
 1847SOL    HW1 6982   1.412   7.597   9.227  0.4411 -0.9836  0.0579
 1847SOL    HW2 6983   1.408   7.483   9.326  0.8299 -0.1995  0.9847
 1848SOL     OW 6984   3.043   1.518   9.330 -0.4562 -0.7256  0.1863
 1848SOL    HW1 6985   3.098   1.578   9.281 -0.3589  0.2979  1.5000
 1848SOL    HW2 6986   3.101   1.480   9.395 -0.7060 -1.6635 -0.1278
 1849SOL     OW 6987   4.101   3.546   2.120  0.0750 -0.2096 -0.6619
 1849SOL    HW1 6988   4.034   3.533   2.187 -1.3074 -1.2506 -2.1578
 1849SOL    HW2 6989   4.055   3.586   2.046  1.6862  1.5289 -0.8109
 1850SOL     OW 6990   0.806   2.541   3.555  0.8990  0.0042  0.4090
 1850SOL    HW1 6991   0.862   2.548   3.477  2.3513  1.0517  1.4865
 1850SOL    HW2 6992   0.835   2.612   3.612 -1.9272  0.9261  0.8299
 1851SOL     OW 6993   0.083   5.116   4.463 -0.4341  0.4870  0.2540
 1851SOL    HW1 6994   0.076   5.094   4.556 -1.3224 -1.2848 -0.1913
 1851SOL    HW2 6995   0.124   5.202   4.462  0.1528  0.2809  2.2637
 1852SOL     OW 6996   5.333   4.735   8.383  0.0249 -0.1915 -0.0148
 1852SOL    HW1 6997   5.321   4.662   8.444  0.9368 -1.0312 -0.7961
 1852SOL    HW2 6998   5.424   4.727   8.354 -0.2503  0.4632 -1.1062
 1853SOL     OW 6999   0.659   0.921   7.058 -0.2243  0.3755 -0.2664
 1853SOL    HW1 7000   0.581   0.881   7.018 -0.2121  1.2251 -1.1548
 1853SOL    HW2 7001   0.730   0.861   7.036 -0.7613 -0.9920  1.4779
 1854SOL     OW 7002   7.885   0.249   3.714  0.2142  0.3301  0.4795
 1854SOL    HW1 7003   7.791   0.267   3.710  0.3627  0.7975 -1.8418
 1854SOL    HW2 7004   7.895   0.162   3.677  0.9562  1.6002 -2.5894
 1855SOL     OW 7005   2.023   3.607  11.052 -0.3464 -0.0426  0.4206
 1855SOL    HW1 7006   2.003   3.514  11.041  1.8783 -0.6564  0.9407
 1855SOL    HW2 7007   2.020   3.644  10.964 -0.8204 -0.7032  0.1576
 1856SOL     OW 7008   7.267   0.809   6.807 -0.2637 -0.4134  0.3438
 1856SOL    HW1 7009   7.261   0.904   6.799 -0.0331 -0.2341  2.0045
 1856SOL    HW2 7010   7.338   0.794   6.868  0.6108 -1.7326 -0.9383
 1857SOL     OW 7011   6.035   2.306   0.052 -0.0411  0.2596  0.3669
 1857SOL    HW1 7012   5.987   2.289  -0.029 -1.3174  0.9792  0.9386
 1857SOL    HW2 7013   6.094   2.232   0.060 -0.3684 -0.1725 -0.8724
 1858SOL     OW 7014   7.557   7.811   0.894  0.2796  0.3226 -0.1469
 1858SOL    HW1 7015   7.585   7.900   0.917  2.2568 -0.7244  1.8263
 1858SOL    HW2 7016   7.635   7.757   0.904 -0.4677 -1.4822 -2.7958
 1859SOL     OW 7017   2.553   7.028   5.348 -0.0078 -0.0500 -0.0928
 1859SOL    HW1 7018   2.601   6.962   5.397 -0.8090 -0.8386 -0.3424
 1859SOL    HW2 7019   2.474   7.045   5.400  0.5768  1.3223  0.3779
 1860SOL     OW 7020   4.541   2.894   9.853  0.5485  0.1002  0.0753
 1860SOL    HW1 7021   4.486   2.818   9.832 -1.5183  1.4453  0.2923
 1860SOL    HW2 7022   4.565   2.929   9.767  1.0692 -0.4621 -0.0212
 1861SOL     OW 7023   7.833   1.451   5.780 -0.1868 -0.7232 -0.1321
 1861SOL    HW1 7024   7.892   1.526   5.791 -1.6569  0.3620  0.7498
 1861SOL    HW2 7025   7.869   1.383   5.837  0.3216 -0.1521  0.2405
 1862SOL     OW 7026   2.186   7.048  11.958 -0.6561  0.1613  0.0627
 1862SOL    HW1 7027   2.108   7.005  11.993 -0.6584 -0.9785 -1.2402
 1862SOL    HW2 7028   2.214   6.992  11.886  1.3683  0.5548  0.4720
 1863SOL     OW 7029   3.580   0.655   0.358 -0.0127 -0.2893 -0.6855
 1863SOL    HW1 7030   3.498   0.653   0.308 -0.3611 -3.7747 -0.2395
 1863SOL    HW2 7031   3.556   0.621   0.444  1.4799  0.9905  0.2740
 1864SOL     OW 7032   4.763   6.209   3.700 -0.1391  0.1710 -0.3841
 1864SOL    HW1 7033   4.669   6.198   3.692 -0.0133 -0.0589 -1.8996
 1864SOL    HW2 7034   4.798   6.182   3.615  1.4049 -0.9453  0.5549
 1865SOL     OW 7035   6.908   0.908   5.491  0.1935 -0.1420 -0.1966
 1865SOL    HW1 7036   6.912   0.880   5.400  0.4882  2.3515 -1.0334
 1865SOL    HW2 7037   6.898   1.003   5.487 -1.3278 -0.0816  2.3861
 1866SOL     OW 7038   7.271   6.482   2.426 -0.3235 -0.0154 -0.4508
 1866SOL    HW1 7039   7.341   6.506   2.366 -1.0407  1.1597 -0.8667
 1866SOL    HW2 7040   7.240   6.566   2.461 -0.8068 -0.5836  0.5483
 1867SOL     OW 7041   6.266   2.320  10.821  0.5994  0.0880  0.1605
 1867SOL    HW1 7042   6.332   2.251  10.821  0.5969  0.0727 -0.9708
 1867SOL    HW2 7043   6.212   2.303  10.744  0.2450  1.0180  0.1798
 1868SOL     OW 7044   7.917   6.516   4.830  0.4364  0.5346  0.1969
 1868SOL    HW1 7045   7.864   6.595   4.819  0.9100  0.5814 -2.2756
 1868SOL    HW2 7046   8.007   6.547   4.824  0.6168 -0.2727 -1.8218
 1869SOL     OW 7047   7.091   6.607   5.775  0.2039 -0.0670  0.1410
 1869SOL    HW1 7048   7.019   6.669   5.762  0.0016 -0.4659 -0.7377
 1869SOL    HW2 7049   7.067   6.531   5.721  1.3010 -0.1953 -0.1864
 1870SOL     OW 7050   6.456   0.570   8.167 -0.0543 -0.3668  0.2654
 1870SOL    HW1 7051   6.503   0.617   8.099  2.8947 -1.2460  1.5281
 1870SOL    HW2 7052   6.395   0.513   8.120  3.0324 -2.1908 -1.8632
 1871SOL     OW 7053   0.574   7.667   7.904  0.2219  0.2846  0.3510
 1871SOL    HW1 7054   0.597   7.741   7.847  1.2831  0.4159  0.9217
 1871SOL    HW2 7055   0.606   7.590   7.857 -1.6944  0.0555 -0.6767
 1872SOL     OW 7056   1.573   7.592   4.071  0.1564 -0.5539 -0.3172
 1872SOL    HW1 7057   1.528   7.535   4.134  1.1670  0.7790  1.6849
 1872SOL    HW2 7058   1.642   7.537   4.035  0.6209 -0.8661  0.9953
 1873SOL     OW 7059   2.607   3.084   0.115 -0.2285 -0.0791  0.1058
 1873SOL    HW1 7060   2.588   3.161   0.168  1.5356  0.2605  0.3050
 1873SOL    HW2 7061   2.586   3.009   0.172  0.7564  0.2761  0.9537
 1874SOL     OW 7062   0.195   5.832   2.786  0.8204  0.5890 -0.1029
 1874SOL    HW1 7063   0.168   5.786   2.865  0.9320 -1.3501 -1.1226
 1874SOL    HW2 7064   0.190   5.766   2.717  0.8764  2.1644 -1.6998
 1875SOL     OW 7065   0.895   4.042   4.047 -0.0324 -0.5593 -0.3473
 1875SOL    HW1 7066   0.931   4.050   3.959 -0.2735 -0.2833 -0.4244
 1875SOL    HW2 7067   0.875   4.132   4.073 -0.0489 -0.6481 -0.0472
 1876SOL     OW 7068   0.055   5.328   8.990 -0.0790  0.3198 -0.7857
 1876SOL    HW1 7069   0.128   5.385   8.966  0.3915  0.0947  0.0537
 1876SOL    HW2 7070   0.059   5.256   8.927  0.2407  0.4650 -0.9334
 1877SOL     OW 7071   2.761   6.654   0.465 -0.7001  0.2115  0.1959
 1877SOL    HW1 7072   2.729   6.735   0.426  0.4688  1.0760  0.9462
 1877SOL    HW2 7073   2.695   6.631   0.530 -1.3510  0.2173 -0.4588
 1878SOL     OW 7074   4.785   6.408  10.486  0.6622  0.2598  0.4549
 1878SOL    HW1 7075   4.709   6.351  10.498 -1.0249  1.7055 -2.2754
 1878SOL    HW2 7076   4.759   6.491  10.524  0.7494  0.8289 -0.6779
 1879SOL     OW 7077   1.533   7.681   6.026  0.0685  0.4695  0.9078
 1879SOL    HW1 7078   1.569   7.620   6.091  1.4571 -0.8840 -1.0302
 1879SOL    HW2 7079   1.463   7.632   5.983  1.0554  0.2864 -0.5305
 1880SOL     OW 7080   4.579   7.749  11.291 -0.7135 -0.2817  0.3548
 1880SOL    HW1 7081   4.497   7.789  11.261 -0.8944 -0.3786  0.7025
 1880SOL    HW2 7082   4.648   7.804  11.256 -0.9758  0.8459  1.5284
 1881SOL     OW 7083   1.714   1.135  10.641 -0.6045  0.0722 -0.6205
 1881SOL    HW1 7084   1.662   1.112  10.564 -0.4758  0.3710 -0.7965
 1881SOL    HW2 7085   1.770   1.207  10.612  1.4628 -1.6150 -1.0788
 1882SOL     OW 7086   5.892   5.264   7.836 -0.3602 -0.2104 -0.2402
 1882SOL    HW1 7087   5.858   5.282   7.749  0.4792  2.1802 -0.1414
 1882SOL    HW2 7088   5.820   5.286   7.895 -0.9187 -1.8019 -0.2725
 1883SOL     OW 7089   2.495   6.973   6.003 -0.3298  0.6858  0.4190
 1883SOL    HW1 7090   2.537   7.032   5.939  0.1089  1.1861  1.1587
 1883SOL    HW2 7091   2.479   6.893   5.954  0.5398  0.8538 -0.1667
 1884SOL     OW 7092   2.656   7.246   6.161  0.5952 -0.2537 -0.5491
 1884SOL    HW1 7093   2.564   7.220   6.167  0.6642 -0.3226  0.5954
 1884SOL    HW2 7094   2.701   7.170   6.124 -0.0185  0.3519 -2.6395
 1885SOL     OW 7095   5.997   4.958   3.101 -1.1810 -0.1879 -0.0321
 1885SOL    HW1 7096   5.921   4.916   3.061 -1.9267  0.9683  0.1333
 1885SOL    HW2 7097   6.045   4.996   3.027 -1.4142  0.1159 -0.0287
 1886SOL     OW 7098   3.169   0.489  11.017  0.1597 -0.3231  0.5799
 1886SOL    HW1 7099   3.075   0.492  10.999  0.1642  0.3816  0.6344
 1886SOL    HW2 7100   3.202   0.573  10.986  1.4614 -1.9520 -3.0344
 1887SOL     OW 7101   1.127   6.510  11.822 -0.2395  0.0332  0.0236
 1887SOL    HW1 7102   1.183   6.432  11.819  2.3314  1.7342  0.4132
 1887SOL    HW2 7103   1.086   6.507  11.909  0.2385 -0.6195  0.2369
 1888SOL     OW 7104   3.513   3.177   5.886  0.4562  0.1328 -0.1548
 1888SOL    HW1 7105   3.534   3.244   5.951 -0.0789  1.6404 -1.4584
 1888SOL    HW2 7106   3.596   3.162   5.840  0.3694  0.6654 -0.5031
 1889SOL     OW 7107   5.081   4.075   3.755 -0.1645  0.2957  0.3093
 1889SOL    HW1 7108   5.047   4.026   3.830 -0.5695  1.2255  0.7388
 1889SOL    HW2 7109   5.067   4.167   3.777  0.3162  0.6070 -0.6205
 1890SOL     OW 7110   2.690   2.127   6.132  0.5020  0.4661  0.5722
 1890SOL    HW1 7111   2.762   2.174   6.174  0.3822  0.5178  0.7196
 1890SOL    HW2 7112   2.682   2.167   6.045  0.6236  0.4881  0.5707
 1891SOL     OW 7113   1.754   4.351   2.879 -0.0576 -0.5935 -0.2096
 1891SOL    HW1 7114   1.784   4.271   2.923 -2.2974  0.1801  3.1574
 1891SOL    HW2 7115   1.747   4.416   2.950 -1.0310  1.7360 -2.3025
 1892SOL     OW 7116   4.524   3.230   3.366 -0.3750  0.3879  0.0979
 1892SOL    HW1 7117   4.534   3.136   3.382 -0.9694  0.1364 -0.9127
 1892SOL    HW2 7118   4.472   3.262   3.440  0.5779  0.0968  0.9069
 1893SOL     OW 7119   4.087   1.979   2.961 -0.5232 -0.2231  0.9665
 1893SOL    HW1 7120   4.129   2.035   3.027  0.5649  0.9179 -0.6081
 1893SOL    HW2 7121   4.150   1.909   2.947  0.9092  1.3817 -1.2525
 1894SOL     OW 7122   0.980   7.964   2.155  0.4691 -0.4833  0.2917
 1894SOL    HW1 7123   0.922   7.942   2.082 -0.0575 -0.2346  0.6251
 1894SOL    HW2 7124   0.992   7.882   2.202  0.1452 -0.4798  0.3847
 1895SOL     OW 7125   2.302   0.460   0.842  0.5236 -0.0771  0.6289
 1895SOL    HW1 7126   2.335   0.451   0.932 -0.5450  0.0550  1.0419
 1895SOL    HW2 7127   2.307   0.371   0.807  0.8310 -0.1520  0.8492
 1896SOL     OW 7128   0.851   7.453   1.637 -0.0375  0.2014  0.2344
 1896SOL    HW1 7129   0.785   7.454   1.568  0.1140 -0.0359  0.0864
 1896SOL    HW2 7130   0.821   7.386   1.698  0.2419 -0.1392 -0.0033
 1897SOL     OW 7131   4.437   0.895   4.081 -0.1445 -0.0925  0.0266
 1897SOL    HW1 7132   4.495   0.964   4.113  0.2509  0.1394 -1.1512
 1897SOL    HW2 7133   4.490   0.847   4.017 -0.3563 -1.6102  0.9430
 1898SOL     OW 7134   7.459   5.267   2.470  0.3539  0.5683 -0.2597
 1898SOL    HW1 7135   7.537   5.212   2.465 -0.6509 -0.8738 -0.6934
 1898SOL    HW2 7136   7.450   5.288   2.563  0.1904 -0.8855  0.0824
 1899SOL     OW 7137   5.672   4.721  11.553  0.0647 -0.1010 -0.0550
 1899SOL    HW1 7138   5.661   4.776  11.475  0.5722  0.6651  0.4046
 1899SOL    HW2 7139   5.585   4.718  11.592 -0.0020  0.2519 -0.1699
 1900SOL     OW 7140   0.273   0.732   0.974 -0.8768 -0.1316  0.1150
 1900SOL    HW1 7141   0.225   0.650   0.992 -1.7089  0.4463  0.5865
 1900SOL    HW2 7142   0.236   0.764   0.892 -0.3488 -0.3696 -0.2188
 1901SOL     OW 7143   2.475   5.179   1.136  0.0800 -0.4429  0.5075
 1901SOL    HW1 7144   2.554   5.127   1.124  1.3781  0.9566  2.4564
 1901SOL    HW2 7145   2.490   5.259   1.086  0.0511 -0.0153  1.1777
 1902SOL     OW 7146   4.823   3.941   2.873 -0.2202 -0.6125 -0.4061
 1902SOL    HW1 7147   4.765   3.866   2.884 -0.7282 -0.4469 -1.7454
 1902SOL    HW2 7148   4.851   3.963   2.961 -0.1328 -2.3116  0.0284
 1903SOL     OW 7149   4.621   0.924   7.139 -0.1657 -0.4536 -0.0417
 1903SOL    HW1 7150   4.687   0.855   7.151  0.3210  0.1458  0.8872
 1903SOL    HW2 7151   4.595   0.917   7.048  0.0332 -1.7304 -0.0095
 1904SOL     OW 7152   3.372   2.520  11.507  0.1785  0.3553  0.1259
 1904SOL    HW1 7153   3.388   2.449  11.570 -0.8959  0.8081  0.9345
 1904SOL    HW2 7154   3.277   2.530  11.506  0.1225 -0.0792 -2.0969
 1905SOL     OW 7155   5.252   3.797   5.395 -0.1795 -0.0990  0.2492
 1905SOL    HW1 7156   5.324   3.736   5.410  0.2704  0.4513  0.3760
 1905SOL    HW2 7157   5.234   3.833   5.482 -0.7859 -0.4267  0.2619
 1906SOL     OW 7158   3.389   4.657   2.841  0.5818 -0.4780  0.3862
 1906SOL    HW1 7159   3.348   4.572   2.855  0.1977 -0.2993  0.3611
 1906SOL    HW2 7160   3.356   4.712   2.911  0.4981 -0.2333  0.1563
 1907SOL     OW 7161   1.520   6.772   4.149  0.0884  0.1482  0.4172
 1907SOL    HW1 7162   1.540   6.693   4.199  2.5593  0.3141 -0.1783
 1907SOL    HW2 7163   1.539   6.844   4.210 -0.6690  0.3055  0.4699
 1908SOL     OW 7164   5.519   1.082   2.158 -0.3157  0.0224  0.2309
 1908SOL    HW1 7165   5.526   1.112   2.248  2.7179 -0.0031  0.1178
 1908SOL    HW2 7166   5.545   0.990   2.161  0.8907  0.2983 -0.7491
 1909SOL     OW 7167   1.402   2.411  10.909 -0.3476  0.0939 -0.0941
 1909SOL    HW1 7168   1.319   2.440  10.871  0.3399 -0.6252 -2.3461
 1909SOL    HW2 7169   1.439   2.353  10.842  0.6092 -1.9889  2.1246
 1910SOL     OW 7170   7.817   5.544   5.486 -0.2636  0.0668 -0.2669
 1910SOL    HW1 7171   7.743   5.518   5.431 -1.3099  0.8330  0.7570
 1910SOL    HW2 7172   7.867   5.605   5.431  0.3194 -1.3644 -1.4080
 1911SOL     OW 7173   5.334   0.722   3.024 -0.0419  0.1101 -0.2550
 1911SOL    HW1 7174   5.259   0.778   3.044  1.2119  1.5272  0.6669
 1911SOL    HW2 7175   5.329   0.708   2.930 -0.9713  0.9151 -0.3393
 1912SOL     OW 7176   1.602   2.509   1.118  0.1743 -0.3181  0.8239
 1912SOL    HW1 7177   1.677   2.562   1.091 -0.0550  0.0273  0.8505
 1912SOL    HW2 7178   1.566   2.555   1.194 -0.6765  0.1039  0.1943
 1913SOL     OW 7179   5.690   6.971   6.538  0.3255  0.5202  0.3924
 1913SOL    HW1 7180   5.711   7.061   6.565 -0.1579  1.7382 -2.7965
 1913SOL    HW2 7181   5.774   6.932   6.517  0.4138  0.8735  0.0718
 1914SOL     OW 7182   4.521   0.763   1.110 -0.2922  0.1368  0.1064
 1914SOL    HW1 7183   4.466   0.817   1.053  0.2895  0.8111  0.1690
 1914SOL    HW2 7184   4.605   0.809   1.112  0.0778 -0.5466  0.5121
 1915SOL     OW 7185   0.186   3.033   6.319  0.1234 -0.0002  0.4572
 1915SOL    HW1 7186   0.266   3.064   6.361 -0.0425  0.8085  0.1853
 1915SOL    HW2 7187   0.134   2.997   6.391  1.1830 -1.5858  0.4891
 1916SOL     OW 7188   3.593   0.957   4.691 -1.0162  0.1659 -0.6041
 1916SOL    HW1 7189   3.595   0.869   4.727  1.4280  0.0411 -0.8485
 1916SOL    HW2 7190   3.633   0.948   4.604  0.8109  1.7213  0.0072
 1917SOL     OW 7191   3.786   0.681   3.763 -0.1325 -0.3937 -0.4720
 1917SOL    HW1 7192   3.872   0.677   3.805 -1.3045 -3.1466  2.0292
 1917SOL    HW2 7193   3.749   0.764   3.792  0.3875 -0.7471  1.3602
 1918SOL     OW 7194   7.321   5.772   1.751 -0.4081  0.7357 -0.3046
 1918SOL    HW1 7195   7.251   5.708   1.765  0.0940  0.1054 -0.5995
 1918SOL    HW2 7196   7.295   5.848   1.803 -0.7997  0.1241  0.4171
 1919SOL     OW 7197   3.319   7.156   3.599 -0.6822 -0.3921  0.7064
 1919SOL    HW1 7198   3.244   7.099   3.581  0.2145 -1.4730  0.3152
 1919SOL    HW2 7199   3.396   7.102   3.581  0.2048  0.7199  1.0265
 1920SOL     OW 7200   4.213   4.181   1.834  0.1927  0.4428 -0.1799
 1920SOL    HW1 7201   4.301   4.149   1.814  0.4488  0.8028  0.3412
 1920SOL    HW2 7202   4.160   4.155   1.758  0.8858  0.7898 -0.7997
 1921SOL     OW 7203   7.580   2.439   1.794  0.1977  0.0506 -0.1463
 1921SOL    HW1 7204   7.545   2.520   1.830  0.8671 -0.0007  0.6446
 1921SOL    HW2 7205   7.638   2.467   1.724 -0.4250  0.1899 -0.6213
 1922SOL     OW 7206   5.440   3.443  10.384  0.3083  0.6344 -0.2201
 1922SOL    HW1 7207   5.420   3.350  10.371  0.9384  0.2241  1.4627
 1922SOL    HW2 7208   5.532   3.451  10.359  0.9742  0.2378  1.8957
 1923SOL     OW 7209   7.876   7.307   4.965  0.4035 -0.3290  0.5234
 1923SOL    HW1 7210   7.970   7.309   4.985  0.2227  1.5160  1.4288
 1923SOL    HW2 7211   7.870   7.261   4.882  2.1123 -0.5269  0.4706
 1924SOL     OW 7212   5.759   0.876   8.792  0.2619 -0.2773  0.1095
 1924SOL    HW1 7213   5.725   0.935   8.725  1.5162 -0.7956 -1.0276
 1924SOL    HW2 7214   5.712   0.900   8.871 -1.3820  0.2559 -0.9790
 1925SOL     OW 7215   4.805   4.142   8.635  0.2462 -0.6105  0.8165
 1925SOL    HW1 7216   4.845   4.145   8.549  0.2526  2.1688  0.8298
 1925SOL    HW2 7217   4.836   4.060   8.673 -0.5343 -2.4218 -2.1166
 1926SOL     OW 7218   0.841   2.325   5.480 -0.0553 -0.1429 -0.2666
 1926SOL    HW1 7219   0.859   2.413   5.511 -1.5713 -0.0605  0.4516
 1926SOL    HW2 7220   0.924   2.295   5.441  0.7167  1.2478  0.2782
 1927SOL     OW 7221   0.956   0.380   3.804 -0.3804 -0.3869  0.1296
 1927SOL    HW1 7222   0.861   0.391   3.799 -0.2555  0.5912 -0.3505
 1927SOL    HW2 7223   0.990   0.436   3.734  0.5485 -0.7716  0.2630
 1928SOL     OW 7224   7.903   6.849  10.334 -0.1400  0.3617 -0.4828
 1928SOL    HW1 7225   7.910   6.909  10.260 -0.4534 -0.1261 -0.9175
 1928SOL    HW2 7226   7.937   6.898  10.409  2.6192  0.0239 -1.4126
 1929SOL     OW 7227   5.796   6.037   8.403 -0.6068 -0.4349  0.2909
 1929SOL    HW1 7228   5.815   5.983   8.326 -2.9886 -0.1459 -0.6079
 1929SOL    HW2 7229   5.836   6.122   8.384  0.4954 -0.9294  0.3083
 1930SOL     OW 7230   7.860   5.764   4.925 -0.0071  0.1629 -0.1653
 1930SOL    HW1 7231   7.767   5.750   4.944 -0.0706 -0.0477 -0.6207
 1930SOL    HW2 7232   7.870   5.737   4.834  0.5571 -0.0680 -0.0373
 1931SOL     OW 7233   0.425   5.773   4.468 -0.2511 -0.9278 -0.2319
 1931SOL    HW1 7234   0.467   5.707   4.413  0.8966 -0.5777  0.1839
 1931SOL    HW2 7235   0.378   5.723   4.534  2.2954 -1.4227  1.3583
 1932SOL     OW 7236   7.908   2.183   0.987  1.0167 -0.1343  0.1605
 1932SOL    HW1 7237   7.875   2.134   0.912 -0.5467  0.4784  0.4134
 1932SOL    HW2 7238   7.985   2.228   0.954  1.8774 -1.8785 -0.3637
 1933SOL     OW 7239   5.306   0.523  11.536 -0.0420  0.5765 -0.1770
 1933SOL    HW1 7240   5.225   0.474  11.529 -0.5384  1.4947 -1.2855
 1933SOL    HW2 7241   5.285   0.609  11.500  1.7198  0.4727 -1.6157
 1934SOL     OW 7242   2.498   4.686  11.495 -0.3144 -0.3075 -0.1574
 1934SOL    HW1 7243   2.483   4.706  11.403  0.8346  1.7295  0.0436
 1934SOL    HW2 7244   2.593   4.686  11.504 -0.4102 -0.7110  0.9838
 1935SOL     OW 7245   5.621   3.405   3.259 -1.0309 -0.3741  0.3636
 1935SOL    HW1 7246   5.714   3.426   3.272 -0.7938 -0.7911 -0.5813
 1935SOL    HW2 7247   5.607   3.328   3.314 -0.6010 -0.8044 -0.1180
 1936SOL     OW 7248   0.466   0.251   4.479 -0.6670  0.0873 -0.0143
 1936SOL    HW1 7249   0.528   0.214   4.416 -1.1226 -0.2713 -0.2564
 1936SOL    HW2 7250   0.384   0.206   4.461 -1.4666  1.8031 -0.8572
 1937SOL     OW 7251   3.155   7.428   6.755 -0.0715  0.1754 -0.3423
 1937SOL    HW1 7252   3.064   7.434   6.728 -0.5050  0.5521  1.0905
 1937SOL    HW2 7253   3.170   7.507   6.808  0.3273 -1.0719  1.5106
 1938SOL     OW 7254   1.243   0.588   2.575 -0.0297  0.1361 -0.0290
 1938SOL    HW1 7255   1.294   0.549   2.646  0.5013  1.7739  0.5499
 1938SOL    HW2 7256   1.152   0.578   2.602  0.1716  0.7993  0.9421
 1939SOL     OW 7257   7.857   1.341   6.644  0.7021  0.1898  0.0260
 1939SOL    HW1 7258   7.868   1.352   6.549  2.1080  0.2821  0.1848
 1939SOL    HW2 7259   7.888   1.423   6.682  1.4429 -0.3517  0.6282
 1940SOL     OW 7260   2.100   6.369   7.686 -0.7190 -0.2578 -0.3037
 1940SOL    HW1 7261   2.126   6.291   7.636 -0.9296  1.6404 -3.7308
 1940SOL    HW2 7262   2.170   6.380   7.750  0.5175 -2.0136 -1.2456
 1941SOL     OW 7263   1.860   6.053   0.009  0.1435  0.7654  0.0657
 1941SOL    HW1 7264   1.916   5.980   0.032 -0.2331  0.4411 -0.0240
 1941SOL    HW2 7265   1.911   6.131   0.029  0.9316  0.4765 -0.7729
 1942SOL     OW 7266   4.219   1.264  12.256 -0.6158 -0.3131  0.2565
 1942SOL    HW1 7267   4.178   1.270  12.342 -1.1515  2.9942 -0.1005
 1942SOL    HW2 7268   4.164   1.317  12.199  2.3965  1.7995 -0.9379
 1943SOL     OW 7269   4.163   7.749  12.443 -0.0050 -0.0183 -0.2881
 1943SOL    HW1 7270   4.128   7.802  12.515  1.1383 -0.2954  0.5047
 1943SOL    HW2 7271   4.088   7.700  12.410 -0.7586  0.9180  0.0102
 1944SOL     OW 7272   1.630   3.869   2.218  0.3375 -0.6141  0.4229
 1944SOL    HW1 7273   1.716   3.905   2.237  0.4457 -0.2558 -0.7243
 1944SOL    HW2 7274   1.605   3.825   2.300  1.6827 -0.9021  0.7077
 1945SOL     OW 7275   2.964   0.498   0.180  0.5275  0.0733  0.0603
 1945SOL    HW1 7276   2.958   0.407   0.210 -2.4674 -0.1588 -0.9405
 1945SOL    HW2 7277   3.018   0.541   0.246  2.2487 -2.4269  0.4425
 1946SOL     OW 7278   6.273   3.544   0.578 -0.5615 -0.4376 -0.2323
 1946SOL    HW1 7279   6.331   3.606   0.532  0.2853 -0.0197  1.3352
 1946SOL    HW2 7280   6.243   3.593   0.654  1.3486 -2.3862  1.9101
 1947SOL     OW 7281   1.455   6.577   9.691  0.1569  0.3353 -0.5867
 1947SOL    HW1 7282   1.377   6.550   9.739  2.1826  0.4030  3.0869
 1947SOL    HW2 7283   1.485   6.498   9.646 -0.7044 -0.3165 -0.0383
 1948SOL     OW 7284   5.227   6.089   1.248 -0.0540 -0.2617 -0.3084
 1948SOL    HW1 7285   5.222   6.131   1.333  1.1229  2.8190 -1.6197
 1948SOL    HW2 7286   5.261   6.001   1.266  0.1655  0.3032  2.3602
 1949SOL     OW 7287   1.096   4.065   4.886  0.1300 -0.2622  0.4553
 1949SOL    HW1 7288   1.155   4.139   4.904 -0.7371  0.7125 -0.5142
 1949SOL    HW2 7289   1.108   4.048   4.792 -0.5897 -0.5230  0.4081
 1950SOL     OW 7290   0.999   3.775  10.592  0.4052  0.0084  0.4006
 1950SOL    HW1 7291   1.008   3.747  10.501  0.5905 -0.0081  0.4242
 1950SOL    HW2 7292   1.058   3.850  10.600 -0.2304  0.5275  0.2843
 1951SOL     OW 7293   1.726   1.588   4.760 -0.1476 -0.3687 -0.3433
 1951SOL    HW1 7294   1.662   1.620   4.823 -0.3295  0.1800 -0.7974
 1951SOL    HW2 7295   1.734   1.494   4.779 -1.3154 -0.5147 -0.4784
 1952SOL     OW 7296   7.136   4.825   9.189 -0.4040  0.6671 -0.7373
 1952SOL    HW1 7297   7.086   4.877   9.252 -2.4288 -1.6235 -0.3249
 1952SOL    HW2 7298   7.075   4.808   9.118  0.7857  0.3510 -1.7289
 1953SOL     OW 7299   7.843   5.952   8.734  0.1109 -0.0462  0.2733
 1953SOL    HW1 7300   7.902   6.000   8.792 -1.2474  0.6112  1.1758
 1953SOL    HW2 7301   7.861   5.987   8.647 -0.4971  1.7884  0.8450
 1954SOL     OW 7302   1.781   0.650   3.652  0.3702  0.3674 -0.2174
 1954SOL    HW1 7303   1.835   0.624   3.727 -0.3098 -2.1003 -0.4865
 1954SOL    HW2 7304   1.691   0.646   3.685  0.1385  0.7325 -0.7893
 1955SOL     OW 7305   1.602   2.685   2.329  0.2508 -0.9743  0.7374
 1955SOL    HW1 7306   1.679   2.693   2.272  0.0288 -1.0143  0.4296
 1955SOL    HW2 7307   1.584   2.775   2.356 -0.3651 -0.7842 -0.2299
 1956SOL     OW 7308   3.244   4.923  12.309 -0.0338  0.4159 -0.8496
 1956SOL    HW1 7309   3.267   4.985  12.378  0.8304 -1.1698  0.3568
 1956SOL    HW2 7310   3.259   4.837  12.348 -1.6931 -0.6006 -2.2790
 1957SOL     OW 7311   0.470   6.757   4.484 -0.9041 -0.2710  0.1323
 1957SOL    HW1 7312   0.555   6.714   4.491 -0.8822 -0.2455  0.0226
 1957SOL    HW2 7313   0.490   6.851   4.483 -0.6788 -0.2633 -2.9727
 1958SOL     OW 7314   5.478   5.788   7.928  0.5805  0.4733 -0.4579
 1958SOL    HW1 7315   5.399   5.764   7.880  0.3590  0.8060 -0.2579
 1958SOL    HW2 7316   5.496   5.878   7.902  0.7964  0.4571 -0.3698
 1959SOL     OW 7317   3.236   7.020   4.720 -0.0429  0.3657  0.4205
 1959SOL    HW1 7318   3.221   6.974   4.802  0.4400 -1.2492 -0.3546
 1959SOL    HW2 7319   3.315   6.980   4.684 -1.0853 -0.0623 -1.5446
 1960SOL     OW 7320   1.301   3.628  10.696 -0.2852 -0.8356  0.9796
 1960SOL    HW1 7321   1.384   3.675  10.703 -0.5559  0.4274 -2.4975
 1960SOL    HW2 7322   1.240   3.676  10.751 -0.0691  1.9262 -0.9861
 1961SOL     OW 7323   0.030   3.191   2.561 -0.1188 -0.1526 -0.6218
 1961SOL    HW1 7324   0.093   3.262   2.574 -0.7539 -0.0206  2.4580
 1961SOL    HW2 7325   0.082   3.111   2.569 -0.2569 -0.0620  2.5665
 1962SOL     OW 7326   5.055   1.986   2.325 -0.2583  0.3273  0.1014
 1962SOL    HW1 7327   5.059   1.922   2.254 -1.0792  0.1121  0.2344
 1962SOL    HW2 7328   5.131   2.042   2.312 -0.0990 -0.0499 -0.6212
 1963SOL     OW 7329   1.127   6.601   9.496  0.2229 -0.2430 -0.0875
 1963SOL    HW1 7330   1.138   6.526   9.437 -2.7038  0.5585 -1.8624
 1963SOL    HW2 7331   1.103   6.562   9.580 -1.1729 -1.3703 -0.9645
 1964SOL     OW 7332   0.686   2.194   6.247  1.0186 -0.2095 -0.3433
 1964SOL    HW1 7333   0.720   2.201   6.336 -2.0524  1.7494  0.8541
 1964SOL    HW2 7334   0.640   2.110   6.245  1.0263 -0.2223 -0.0145
 1965SOL     OW 7335   0.700   1.655   7.084 -0.0620 -0.0383 -0.1784
 1965SOL    HW1 7336   0.609   1.673   7.108  0.2316  0.5244  0.5086
 1965SOL    HW2 7337   0.752   1.687   7.157  0.5772 -2.2999  0.4221
 1966SOL     OW 7338   5.485   4.477   4.866  0.3840 -0.0307  0.2764
 1966SOL    HW1 7339   5.537   4.397   4.871 -1.7171 -1.5154  0.0111
 1966SOL    HW2 7340   5.462   4.486   4.774 -1.5845 -0.6801  0.6613
 1967SOL     OW 7341   0.784   6.423   2.436 -0.2509 -0.2194  0.1861
 1967SOL    HW1 7342   0.761   6.343   2.483 -0.1780 -0.0865  0.4460
 1967SOL    HW2 7343   0.866   6.452   2.475 -0.4639  0.1826  0.3438
 1968SOL     OW 7344   5.928   5.277   0.201 -0.1184 -0.2627 -0.8685
 1968SOL    HW1 7345   5.978   5.202   0.168  0.9775  0.4689 -0.9243
 1968SOL    HW2 7346   5.838   5.259   0.175  0.2622 -1.1448 -1.6417
 1969SOL     OW 7347   5.364   6.506   2.855 -0.0221  0.3570 -0.1407
 1969SOL    HW1 7348   5.445   6.508   2.905 -0.5057 -1.2201  0.7634
 1969SOL    HW2 7349   5.392   6.490   2.764  0.7341  0.9499 -0.0123
 1970SOL     OW 7350   4.579   3.328   2.616 -0.5339  0.0133 -0.1818
 1970SOL    HW1 7351   4.581   3.376   2.699 -0.4674 -1.3065  0.6098
 1970SOL    HW2 7352   4.489   3.338   2.585 -0.1778  1.8272 -0.7883
 1971SOL     OW 7353   3.802   5.585   7.044  0.3722  0.0549  1.0119
 1971SOL    HW1 7354   3.860   5.642   6.994 -1.3549  1.7883  0.8520
 1971SOL    HW2 7355   3.768   5.523   6.980 -0.7164  1.3592  0.2733
 1972SOL     OW 7356   6.322   4.344   7.777 -0.5139  0.1457  0.3740
 1972SOL    HW1 7357   6.321   4.418   7.837 -1.4750 -0.0991  0.6821
 1972SOL    HW2 7358   6.231   4.334   7.749 -0.1265  0.1507 -1.0066
 1973SOL     OW 7359   0.574   0.941   5.007 -0.1661 -0.0017 -0.1581
 1973SOL    HW1 7360   0.574   1.035   5.026 -0.4884 -0.3189  1.5331
 1973SOL    HW2 7361   0.489   0.910   5.039  0.1118 -0.9411 -0.3041
 1974SOL     OW 7362   0.778   6.159   9.624  0.3760  0.1129  0.7582
 1974SOL    HW1 7363   0.828   6.190   9.549  1.6021  1.6580  2.1372
 1974SOL    HW2 7364   0.826   6.192   9.700 -0.4538 -1.9443  2.2601
 1975SOL     OW 7365   1.447   7.522   3.809 -0.3581  0.0413  0.4246
 1975SOL    HW1 7366   1.410   7.607   3.830 -0.3492 -0.0365  0.7630
 1975SOL    HW2 7367   1.526   7.516   3.863 -0.6155 -0.3810  0.7560
 1976SOL     OW 7368   0.822   4.893   4.522  0.2781 -0.1983  0.0701
 1976SOL    HW1 7369   0.888   4.834   4.559  0.4962  0.1499  0.2521
 1976SOL    HW2 7370   0.873   4.961   4.478  0.0838  0.6023  1.0259
 1977SOL     OW 7371   2.142   0.746   2.555  0.2663 -0.1586  0.6549
 1977SOL    HW1 7372   2.186   0.690   2.491 -1.0525 -1.8957  1.1740
 1977SOL    HW2 7373   2.158   0.835   2.525  1.8772 -0.8249 -0.6072
 1978SOL     OW 7374   7.761   4.526   0.318 -0.5657 -0.4525 -0.1257
 1978SOL    HW1 7375   7.834   4.511   0.258  0.8762  0.8335  1.1953
 1978SOL    HW2 7376   7.717   4.442   0.325  0.5184 -1.1482 -1.3092
 1979SOL     OW 7377   4.845   6.027  10.277 -0.0127 -0.1703 -0.1906
 1979SOL    HW1 7378   4.783   6.031  10.204 -2.5170  0.2048  1.8420
 1979SOL    HW2 7379   4.827   5.943  10.319  2.1689 -0.8877 -0.5657
 1980SOL     OW 7380   0.894   6.657   7.831  0.1181 -0.4732  0.3756
 1980SOL    HW1 7381   0.944   6.624   7.756 -1.2700 -0.9796 -0.3566
 1980SOL    HW2 7382   0.802   6.645   7.806 -0.4296  1.6164  1.1382
 1981SOL     OW 7383   7.389   0.591   5.283 -0.1014 -0.1201 -0.2288
 1981SOL    HW1 7384   7.296   0.593   5.258 -0.8919  3.2170  2.2558
 1981SOL    HW2 7385   7.423   0.674   5.253  0.9315  0.5219  2.4330
 1982SOL     OW 7386   7.430   1.874  10.648  1.1475  0.1337 -0.2510
 1982SOL    HW1 7387   7.418   1.782  10.673  0.7779 -0.1594 -1.4463
 1982SOL    HW2 7388   7.435   1.921  10.731 -1.2457 -0.6411  0.4112
 1983SOL     OW 7389   7.492   2.704   9.917 -0.2406  0.1101  0.1192
 1983SOL    HW1 7390   7.402   2.701   9.885  0.3376 -0.4455 -1.5888
 1983SOL    HW2 7391   7.522   2.613   9.913  1.1023  0.5776 -1.6355
 1984SOL     OW 7392   6.977   6.284   9.626 -0.2276 -0.0048 -0.0450
 1984SOL    HW1 7393   6.939   6.372   9.622  1.2242  0.6374 -0.6532
 1984SOL    HW2 7394   6.912   6.228   9.583 -0.8408  0.9028 -0.3363
 1985SOL     OW 7395   3.417   6.956   5.565 -0.3102  0.4504  0.1046
 1985SOL    HW1 7396   3.466   7.038   5.565 -0.3301  0.5443  2.5009
 1985SOL    HW2 7397   3.326   6.984   5.578 -0.3150  0.0852  0.9342
 1986SOL     OW 7398   3.630   1.158  10.260 -0.4656 -0.3605  0.4410
 1986SOL    HW1 7399   3.686   1.168  10.183 -0.3853  0.2964  0.5750
 1986SOL    HW2 7400   3.598   1.246  10.277  0.9668 -0.1207  2.2237
 1987SOL     OW 7401   7.198   1.201   0.679 -0.1185 -0.0440 -0.0319
 1987SOL    HW1 7402   7.245   1.122   0.655  0.0921  0.1530 -0.2715
 1987SOL    HW2 7403   7.197   1.254   0.599 -1.8510 -0.5817 -0.4042
 1988SOL     OW 7404   4.833   1.353   8.742  0.0966 -0.4792 -0.0908
 1988SOL    HW1 7405   4.828   1.377   8.649  1.1116 -1.1946 -0.3496
 1988SOL    HW2 7406   4.742   1.355   8.772 -0.1648  0.5626 -0.8851
 1989SOL     OW 7407   3.563   7.274   1.886  0.2208 -0.1251 -0.7728
 1989SOL    HW1 7408   3.637   7.215   1.871 -1.0363 -2.0624  0.2187
 1989SOL    HW2 7409   3.540   7.261   1.978 -2.0324 -0.4279 -1.3105
 1990SOL     OW 7410   4.387   0.206   6.652  0.1732  0.0642 -0.4125
 1990SOL    HW1 7411   4.386   0.256   6.733 -2.0224  0.7478 -0.7931
 1990SOL    HW2 7412   4.328   0.253   6.594 -0.4802 -1.9127 -1.4610
 1991SOL     OW 7413   0.878   3.940  12.149  0.0530  0.6477 -0.0889
 1991SOL    HW1 7414   0.809   3.874  12.139  0.2946  0.3883 -0.0594
 1991SOL    HW2 7415   0.941   3.919  12.080  1.0866 -0.3500  1.1275
 1992SOL     OW 7416   0.425   4.459  10.575 -0.0321 -0.0850  0.1665
 1992SOL    HW1 7417   0.426   4.384  10.515  0.3457  0.6124 -0.7119
 1992SOL    HW2 7418   0.429   4.536  10.518  0.0154  0.6018  1.0759
 1993SOL     OW 7419   5.456   1.699   5.282  0.0440 -0.4338 -0.5346
 1993SOL    HW1 7420   5.526   1.733   5.336  0.2105 -0.1562 -0.9207
 1993SOL    HW2 7421   5.429   1.773   5.227  0.3888 -0.9013 -1.3550
 1994SOL     OW 7422   5.363   5.608   8.478  0.1127 -0.3294  0.1942
 1994SOL    HW1 7423   5.355   5.619   8.573  1.5236  1.2773  0.1627
 1994SOL    HW2 7424   5.442   5.555   8.467  1.3258  1.4798 -0.1224
 1995SOL     OW 7425   7.593   7.579   6.236  0.3809 -0.1315 -0.2299
 1995SOL    HW1 7426   7.641   7.654   6.272  2.7793 -0.1614 -3.0512
 1995SOL    HW2 7427   7.538   7.616   6.167 -0.4726 -0.6642  0.1491
 1996SOL     OW 7428   0.989   7.125   6.705 -0.2012 -0.4379  0.3269
 1996SOL    HW1 7429   1.047   7.148   6.632 -0.1550  2.0942  1.0420
 1996SOL    HW2 7430   0.928   7.061   6.668 -0.2511  0.8232 -2.0033
 1997SOL     OW 7431   2.933   0.349   7.226  0.2660  0.0198  0.0189
 1997SOL    HW1 7432   2.928   0.407   7.150  0.3254 -0.3192 -0.2437
 1997SOL    HW2 7433   3.007   0.383   7.277  0.0226  0.4477  0.0981
 1998SOL     OW 7434   1.690   4.952   8.237 -0.7207  0.3079 -0.5878
 1998SOL    HW1 7435   1.685   4.931   8.330  0.6199  0.9463 -0.3396
 1998SOL    HW2 7436   1.668   4.871   8.192 -2.0171  0.1609  0.2712
 1999SOL     OW 7437   5.787   7.466   7.902 -0.0468  0.3210 -0.5206
 1999SOL    HW1 7438   5.705   7.465   7.952 -0.3148  0.1921 -0.9525
 1999SOL    HW2 7439   5.777   7.541   7.842 -1.0031 -1.2266 -2.4232
 2000SOL     OW 7440   4.545   1.147   1.659 -0.8899 -0.2035  0.2587
 2000SOL    HW1 7441   4.583   1.215   1.714 -2.0983  0.6389  0.1066
 2000SOL    HW2 7442   4.502   1.195   1.588 -2.7473 -1.0328  0.7606
 2001SOL     OW 7443   0.841   6.691   8.976 -0.1912 -0.5342 -0.6163
 2001SOL    HW1 7444   0.758   6.681   8.930 -1.3590  2.5163  0.5728
 2001SOL    HW2 7445   0.824   6.661   9.065 -0.7442  1.9254  0.1903
 2002SOL     OW 7446   0.335   3.084   3.843 -0.1341  0.0626 -0.1755
 2002SOL    HW1 7447   0.284   3.015   3.800  1.2989 -0.4296 -1.1640
 2002SOL    HW2 7448   0.417   3.087   3.794  1.0398  0.4294  1.7145
 2003SOL     OW 7449   1.099   2.405   7.171 -0.4455  0.2321 -0.8082
 2003SOL    HW1 7450   1.190   2.391   7.144 -0.3577  0.0863 -0.4345
 2003SOL    HW2 7451   1.101   2.488   7.218 -0.0658 -0.8923  1.2533
 2004SOL     OW 7452   6.341   7.703   9.124 -0.4767 -0.4370  0.6429
 2004SOL    HW1 7453   6.361   7.771   9.060  1.9805  0.3706  2.1113
 2004SOL    HW2 7454   6.264   7.736   9.170 -1.1275 -0.1334 -0.6316
 2005SOL     OW 7455   4.623   2.172  11.122  0.6493 -0.4009 -0.3940
 2005SOL    HW1 7456   4.589   2.217  11.199  1.1556 -0.1438 -0.3137
 2005SOL    HW2 7457   4.588   2.083  11.129 -0.5106  0.0245 -0.6549
 2006SOL     OW 7458   0.054   5.452   2.409 -0.3874  0.9182  0.8495
 2006SOL    HW1 7459   0.113   5.508   2.358 -2.5218  2.6340  0.0724
 2006SOL    HW2 7460   0.076   5.363   2.383 -0.4978  1.6529 -2.1775
 2007SOL     OW 7461   7.616   7.671  10.799  0.1349 -0.1955 -0.1179
 2007SOL    HW1 7462   7.695   7.718  10.824 -1.3792  1.9890  0.9001
 2007SOL    HW2 7463   7.623   7.662  10.704  1.9120 -0.7306  0.0334
 2008SOL     OW 7464   0.734   4.016   6.840 -0.2280  0.1668 -0.4019
 2008SOL    HW1 7465   0.688   3.996   6.758  1.6354  1.0040 -1.7362
 2008SOL    HW2 7466   0.717   4.109   6.855 -0.2235  0.1134 -0.0726
 2009SOL     OW 7467   6.200   7.361   9.622  0.1131 -0.5269 -0.1097
 2009SOL    HW1 7468   6.127   7.350   9.683  0.1581 -0.6044 -0.0696
 2009SOL    HW2 7469   6.159   7.376   9.537  0.0539 -0.9548 -0.1569
 2010SOL     OW 7470   4.251   4.201   0.957 -0.0500 -0.3879  0.2777
 2010SOL    HW1 7471   4.343   4.204   0.931 -0.5277 -0.2125 -1.5823
 2010SOL    HW2 7472   4.252   4.182   1.051  1.8910  1.0910  0.5966
 2011SOL     OW 7473   5.506   2.410   2.455 -0.6387  0.3099  0.8560
 2011SOL    HW1 7474   5.599   2.429   2.466 -1.2086  2.4805  2.7070
 2011SOL    HW2 7475   5.482   2.365   2.536 -0.8537 -2.1171 -0.4680
 2012SOL     OW 7476   2.134   1.405   3.878  0.1456  0.0435  0.0750
 2012SOL    HW1 7477   2.129   1.409   3.783  2.6570 -0.5375 -0.1514
 2012SOL    HW2 7478   2.062   1.460   3.909  0.2773  1.5746 -2.1627
 2013SOL     OW 7479   1.545   3.015   8.508 -0.0474  0.5256 -0.2785
 2013SOL    HW1 7480   1.566   3.038   8.599 -0.6494 -0.6908  0.1878
 2013SOL    HW2 7481   1.629   3.012   8.464  0.3905 -0.1939  0.5728
 2014SOL     OW 7482   4.392   2.091   0.256 -0.0520 -0.2283  0.3849
 2014SOL    HW1 7483   4.466   2.105   0.315 -0.7853  0.0988  1.2585
 2014SOL    HW2 7484   4.388   1.996   0.244  0.5435 -0.2423  0.2825
 2015SOL     OW 7485   1.842   2.773  11.994 -0.4064 -0.1183  0.3573
 2015SOL    HW1 7486   1.831   2.698  12.053  1.9168  0.7161  1.9880
 2015SOL    HW2 7487   1.864   2.846  12.052  2.4618  0.6486 -1.5178
 2016SOL     OW 7488   7.190   5.177   4.093  0.4059  0.0082 -0.1169
 2016SOL    HW1 7489   7.106   5.216   4.067  0.2070  0.5916  1.2964
 2016SOL    HW2 7490   7.227   5.144   4.012 -1.0514  0.0189 -0.8213
 2017SOL     OW 7491   4.612   4.316   8.604 -0.1922 -0.4379 -0.4258
 2017SOL    HW1 7492   4.649   4.394   8.563  0.5472  0.0838  1.1439
 2017SOL    HW2 7493   4.679   4.249   8.592 -1.3362 -1.2752 -2.8761
 2018SOL     OW 7494   2.549   4.909   5.581  0.0824  0.1387 -0.0746
 2018SOL    HW1 7495   2.531   4.948   5.667  0.4707  2.2453 -0.9022
 2018SOL    HW2 7496   2.631   4.949   5.553 -1.0397  1.0718 -2.2973
 2019SOL     OW 7497   7.479   2.418   5.554 -0.3600  0.2475  0.2890
 2019SOL    HW1 7498   7.552   2.357   5.567  0.7258  1.5166  0.2702
 2019SOL    HW2 7499   7.421   2.373   5.492  0.4480 -0.7317  0.2177
 2020SOL     OW 7500   0.833   1.145   8.455  0.0528 -0.3918  0.3495
 2020SOL    HW1 7501   0.852   1.086   8.382  1.1924 -0.0996  0.3985
 2020SOL    HW2 7502   0.795   1.223   8.414  0.3931 -0.3574  0.0981
 2021SOL     OW 7503   1.186   3.653   8.583  0.4870 -0.4216 -0.4732
 2021SOL    HW1 7504   1.134   3.689   8.512 -1.1801 -0.1029  0.8416
 2021SOL    HW2 7505   1.276   3.660   8.553 -0.1098  0.4995 -2.1798
 2022SOL     OW 7506   6.791   3.689   7.339 -0.2950 -0.0087 -0.1764
 2022SOL    HW1 7507   6.856   3.707   7.271  0.6579 -0.2515  0.6369
 2022SOL    HW2 7508   6.708   3.683   7.292  0.3278 -0.1285 -1.3105
 2023SOL     OW 7509   3.410   2.267   9.813  0.0134  0.0041  0.4362
 2023SOL    HW1 7510   3.373   2.329   9.752  1.6545  1.4997  0.8830
 2023SOL    HW2 7511   3.383   2.181   9.780 -1.7034  0.8998 -0.5896
 2024SOL     OW 7512   0.842   4.680   1.295  0.2348 -0.2832 -0.2053
 2024SOL    HW1 7513   0.933   4.711   1.292 -0.1544  0.9037 -0.3269
 2024SOL    HW2 7514   0.835   4.621   1.220  0.6901  0.2663 -0.6948
 2025SOL     OW 7515   7.956   2.004   2.915 -0.5181  0.6409  0.2974
 2025SOL    HW1 7516   7.968   1.966   3.002 -0.3227  0.0252  0.0031
 2025SOL    HW2 7517   7.867   1.981   2.891 -0.0532 -0.5691 -0.3284
 2026SOL     OW 7518   1.767   1.072   3.180 -0.4735  0.5223 -0.0951
 2026SOL    HW1 7519   1.863   1.069   3.175 -0.4947  1.0292 -1.2164
 2026SOL    HW2 7520   1.738   0.997   3.129 -0.6883 -1.0839  2.2600
 2027SOL     OW 7521   0.726   0.916   5.425  0.0456 -0.4353  0.5504
 2027SOL    HW1 7522   0.706   0.981   5.358 -0.8188  0.6966  1.8561
 2027SOL    HW2 7523   0.821   0.904   5.420  0.0755  0.1049 -0.4246
 2028SOL     OW 7524   7.210   2.977   6.941  0.0015 -0.2170 -0.2386
 2028SOL    HW1 7525   7.305   2.966   6.936  0.3855  1.7536  1.2592
 2028SOL    HW2 7526   7.198   3.070   6.963 -2.2128 -0.6357  0.5784
 2029SOL     OW 7527   1.280   6.982   9.371  0.4480 -0.1244  0.0530
 2029SOL    HW1 7528   1.366   7.024   9.363  0.3622  0.9655  3.4191
 2029SOL    HW2 7529   1.218   7.046   9.338  0.7979 -0.5054 -1.4154
 2030SOL     OW 7530   6.913   5.344   1.309  0.0548 -0.4109 -0.3314
 2030SOL    HW1 7531   6.873   5.316   1.392  0.5192  1.2982  0.5105
 2030SOL    HW2 7532   6.961   5.267   1.279 -1.8296 -1.7451 -0.1269
 2031SOL     OW 7533   7.693   7.866   1.857 -0.3622  0.0230 -0.1817
 2031SOL    HW1 7534   7.736   7.912   1.785 -1.1528  1.8442  0.4696
 2031SOL    HW2 7535   7.671   7.780   1.820 -1.1496  1.0427 -2.2627
 2032SOL     OW 7536   5.289   4.946   5.823  0.1909  0.0390 -0.3635
 2032SOL    HW1 7537   5.193   4.947   5.829  0.2082  0.1208 -0.0868
 2032SOL    HW2 7538   5.307   4.966   5.731 -0.0293  2.0632 -0.0271
 2033SOL     OW 7539   4.221   2.795   3.565  0.5923  0.5684 -0.0097
 2033SOL    HW1 7540   4.315   2.808   3.574  0.9823 -1.0795 -1.0289
 2033SOL    HW2 7541   4.212   2.746   3.483 -1.1390  0.5182  0.1682
 2034SOL     OW 7542   4.126   0.248  11.010  0.3729  0.1281 -0.0152
 2034SOL    HW1 7543   4.144   0.328  10.960 -0.2562  0.3123  0.0396
 2034SOL    HW2 7544   4.209   0.201  11.012  0.8198  0.9113  0.1772
 2035SOL     OW 7545   4.736   5.488   4.060 -0.3252  0.1231  0.1976
 2035SOL    HW1 7546   4.788   5.462   3.984  1.1624  0.5573  1.0280
 2035SOL    HW2 7547   4.697   5.406   4.091 -0.3411 -0.1764 -0.5711
 2036SOL     OW 7548   2.698   0.893   9.741 -0.0240  0.0034 -0.3509
 2036SOL    HW1 7549   2.707   0.979   9.699  1.7358  1.8650  3.3206
 2036SOL    HW2 7550   2.639   0.908   9.815  0.6865 -1.7814  0.6541
 2037SOL     OW 7551   0.469   6.960   3.132  0.4945  0.1474  0.0581
 2037SOL    HW1 7552   0.381   6.922   3.140  0.1607  0.9852  0.5287
 2037SOL    HW2 7553   0.454   7.054   3.132  1.4676  0.3311  1.2723
 2038SOL     OW 7554   6.203   3.757  11.706 -0.6360  0.0698 -0.1472
 2038SOL    HW1 7555   6.239   3.669  11.699  1.2389  0.5811  2.0343
 2038SOL    HW2 7556   6.109   3.746  11.691 -0.0331 -1.6570 -3.9071
 2039SOL     OW 7557   7.555   0.576   9.042  0.5922 -0.3260 -0.3547
 2039SOL    HW1 7558   7.553   0.653   9.098 -0.9425 -0.3326 -0.3531
 2039SOL    HW2 7559   7.465   0.542   9.045  0.8082 -1.0922 -1.7442
 2040SOL     OW 7560   0.603   5.471  11.938 -0.2461  0.0526  0.0568
 2040SOL    HW1 7561   0.592   5.492  12.031 -0.6201  0.1068  0.0011
 2040SOL    HW2 7562   0.643   5.549  11.901 -1.0508  0.4406 -0.0251
 2041SOL     OW 7563   3.803   0.170   4.626 -0.2431  0.0284 -0.1782
 2041SOL    HW1 7564   3.711   0.152   4.605 -0.3507  0.7813 -0.3658
 2041SOL    HW2 7565   3.808   0.161   4.721 -0.4230 -0.3961 -0.2061
 2042SOL     OW 7566   3.090   5.253   3.836  0.1266 -0.4276 -0.5187
 2042SOL    HW1 7567   3.154   5.319   3.810  0.1874 -1.3502 -3.0373
 2042SOL    HW2 7568   3.139   5.191   3.890  0.1861  1.2535  1.4287
 2043SOL     OW 7569   7.036   1.213   8.304  0.4888  0.6464  0.5175
 2043SOL    HW1 7570   7.061   1.125   8.333  0.1510  0.1042 -0.7486
 2043SOL    HW2 7571   6.953   1.231   8.350 -0.3913 -0.4716 -0.5779
 2044SOL     OW 7572   4.893   7.891   8.694 -0.1544 -0.1817  1.2843
 2044SOL    HW1 7573   4.816   7.924   8.740 -0.7682 -2.0468  1.6834
 2044SOL    HW2 7574   4.866   7.885   8.603  0.8904  3.0021  0.6372
 2045SOL     OW 7575   2.674   0.357  11.564  0.0919  0.3898 -0.0016
 2045SOL    HW1 7576   2.704   0.288  11.505 -1.8226  0.1940 -0.8194
 2045SOL    HW2 7577   2.738   0.357  11.636  1.2243 -0.8676 -0.9594
 2046SOL     OW 7578   0.620   5.748   0.679 -0.1993 -0.0774 -0.5972
 2046SOL    HW1 7579   0.585   5.689   0.613 -0.4950  0.9632 -1.3962
 2046SOL    HW2 7580   0.609   5.836   0.642  0.7194  0.4571  0.3187
 2047SOL     OW 7581   4.812   4.859  12.331 -0.2725  0.0513 -0.3890
 2047SOL    HW1 7582   4.820   4.949  12.301 -1.4204  0.1608 -0.4373
 2047SOL    HW2 7583   4.781   4.866  12.421  1.7463 -0.2902  0.3693
 2048SOL     OW 7584   7.606   1.079   2.777 -0.3072  0.6476  0.2377
 2048SOL    HW1 7585   7.581   1.144   2.712  0.4295 -0.5378 -1.3064
 2048SOL    HW2 7586   7.660   1.128   2.840  1.5125  1.3128 -1.6935
 2049SOL     OW 7587   4.854   2.339   1.758 -0.4557  0.0402 -0.1103
 2049SOL    HW1 7588   4.940   2.380   1.745  0.1368 -0.5556  1.6766
 2049SOL    HW2 7589   4.799   2.410   1.792 -0.5390  0.2834 -0.7303
 2050SOL     OW 7590   3.278   6.708   0.291  0.3037  0.4397  0.5729
 2050SOL    HW1 7591   3.193   6.694   0.334 -1.0543 -2.0935 -2.4918
 2050SOL    HW2 7592   3.259   6.768   0.219  0.9694 -0.4338 -0.3637
 2051SOL     OW 7593   7.493   3.543   1.361  0.0882 -0.2206 -0.0835
 2051SOL    HW1 7594   7.564   3.608   1.355  0.7456 -1.0159 -1.2970
 2051SOL    HW2 7595   7.441   3.557   1.281 -1.0352  0.2272  0.7024
 2052SOL     OW 7596   4.348   0.228   3.186 -0.0269  0.4933  0.2753
 2052SOL    HW1 7597   4.287   0.211   3.258  0.1067 -1.7803 -0.0570
 2052SOL    HW2 7598   4.404   0.299   3.218 -2.7449  2.6155  0.6028
 2053SOL     OW 7599   3.293   2.863  11.018  0.3813 -0.0684 -0.4696
 2053SOL    HW1 7600   3.368   2.876  10.959 -0.7490  0.6697 -1.8033
 2053SOL    HW2 7601   3.240   2.796  10.974 -0.2265  0.1246 -0.0451
 2054SOL     OW 7602   4.919   2.002  11.273  0.0061  0.1328  0.5004
 2054SOL    HW1 7603   4.926   2.062  11.198 -0.8781 -0.7454 -0.3321
 2054SOL    HW2 7604   4.982   2.035  11.337 -1.2481  2.6458  0.5697
 2055SOL     OW 7605   1.538   5.077  10.120  0.2014 -0.2940  0.1116
 2055SOL    HW1 7606   1.598   5.014  10.081  0.7506  0.3440 -0.0955
 2055SOL    HW2 7607   1.527   5.048  10.210  1.4427  0.0076  0.3798
 2056SOL     OW 7608   4.630   5.037  12.187  0.2688 -0.2560 -0.4185
 2056SOL    HW1 7609   4.636   4.965  12.250 -2.2522  0.0772  0.3065
 2056SOL    HW2 7610   4.546   5.024  12.143  1.0719  0.6652 -2.3292
 2057SOL     OW 7611   1.876   1.023   2.679 -0.5588  0.1865  0.7123
 2057SOL    HW1 7612   1.787   1.021   2.644 -0.4413  1.1619  0.3280
 2057SOL    HW2 7613   1.885   1.111   2.717  0.3242  0.1988  0.4989
 2058SOL     OW 7614   2.330   7.682   7.652  0.7215  0.3117  0.0103
 2058SOL    HW1 7615   2.383   7.623   7.599  0.6293 -1.2238  1.5384
 2058SOL    HW2 7616   2.392   7.747   7.685  1.3893 -0.5509  0.5072
 2059SOL     OW 7617   3.428   4.609  11.350  0.1221  0.2272 -0.5306
 2059SOL    HW1 7618   3.434   4.701  11.374 -0.4760 -0.1199  1.1167
 2059SOL    HW2 7619   3.335   4.596  11.330  0.1802 -0.0387 -0.6313
 2060SOL     OW 7620   5.094   7.878   4.657  0.0582 -0.1730 -0.2897
 2060SOL    HW1 7621   5.168   7.931   4.686 -0.9269  1.1051 -0.0312
 2060SOL    HW2 7622   5.126   7.788   4.662  0.7609  0.1327  2.3360
 2061SOL     OW 7623   4.358   5.537   1.300 -0.0343 -0.3538  0.9765
 2061SOL    HW1 7624   4.265   5.527   1.280  0.1043  0.3569 -0.1508
 2061SOL    HW2 7625   4.393   5.589   1.227  0.7016  1.8002  2.7449
 2062SOL     OW 7626   3.654   2.204   4.529  0.4414  0.0308  0.2460
 2062SOL    HW1 7627   3.617   2.201   4.618  2.9451 -1.1936  1.3544
 2062SOL    HW2 7628   3.659   2.112   4.503 -0.9644  0.4131 -1.5533
 2063SOL     OW 7629   3.542   4.524   0.029 -0.0282  0.5442 -0.7257
 2063SOL    HW1 7630   3.497   4.439   0.027  0.2704  0.3976 -1.6366
 2063SOL    HW2 7631   3.472   4.589   0.026 -0.2113  0.3178 -1.9672
 2064SOL     OW 7632   7.266   1.361  10.865 -0.0318  0.2959 -0.2031
 2064SOL    HW1 7633   7.281   1.355  10.770 -1.3584 -0.0937 -0.4031
 2064SOL    HW2 7634   7.352   1.345  10.904  0.0724 -2.0572 -1.2577
 2065SOL     OW 7635   5.906   7.110   3.635  0.0836  0.0143 -0.1567
 2065SOL    HW1 7636   5.823   7.097   3.682 -0.1494 -1.9487 -0.9801
 2065SOL    HW2 7637   5.972   7.112   3.704 -0.3107 -2.1932  0.3812
 2066SOL     OW 7638   7.698   2.053   2.319 -0.1367 -0.1683  0.3868
 2066SOL    HW1 7639   7.643   2.020   2.247 -0.8270 -0.4982  1.0547
 2066SOL    HW2 7640   7.670   2.002   2.395 -0.5843  1.3327  1.2622
 2067SOL     OW 7641   3.769   2.635   8.830  0.0348 -0.3235 -0.1476
 2067SOL    HW1 7642   3.808   2.586   8.903  0.8511  1.5211  0.7151
 2067SOL    HW2 7643   3.675   2.633   8.847  0.2407  0.3765  1.1756
 2068SOL     OW 7644   4.167   1.589   6.784  0.4596 -0.2425 -0.1704
 2068SOL    HW1 7645   4.252   1.633   6.790  0.7916 -0.6442 -1.6541
 2068SOL    HW2 7646   4.125   1.629   6.708 -0.0634 -1.0797 -0.3285
 2069SOL     OW 7647   6.679   0.850   9.943 -0.3485  0.1455  0.3138
 2069SOL    HW1 7648   6.654   0.942   9.940 -1.4501 -0.1667 -0.7717
 2069SOL    HW2 7649   6.602   0.802   9.912 -0.5121 -1.3113  2.6673
 2070SOL     OW 7650   5.081   4.735  10.198  0.3159  0.0811  0.0303
 2070SOL    HW1 7651   5.063   4.803  10.133 -0.1320  0.8962  0.9892
 2070SOL    HW2 7652   5.014   4.748  10.266 -0.2185 -1.7610 -0.0924
 2071SOL     OW 7653   7.476   4.760   5.759  0.1734 -0.3956  0.4774
 2071SOL    HW1 7654   7.541   4.735   5.824 -0.3090  1.9159  1.9607
 2071SOL    HW2 7655   7.526   4.803   5.690  0.5013 -1.3078  0.1329
 2072SOL     OW 7656   0.196   6.930   2.848 -0.1068  0.7189  0.3768
 2072SOL    HW1 7657   0.214   6.923   2.942 -2.9620  1.5571  1.0653
 2072SOL    HW2 7658   0.118   6.877   2.834  2.0843 -2.2361 -2.2969
 2073SOL     OW 7659   1.973   4.387   0.817 -0.4847 -0.1108 -0.0020
 2073SOL    HW1 7660   1.941   4.360   0.730  0.9005 -2.3720  0.1059
 2073SOL    HW2 7661   2.065   4.409   0.803 -0.7883  1.6035  0.5434
 2074SOL     OW 7662   3.883   6.795   2.303 -0.7316  0.1172  0.6988
 2074SOL    HW1 7663   3.940   6.850   2.250  0.0957 -1.2408  0.1338
 2074SOL    HW2 7664   3.804   6.785   2.250 -0.3353 -0.3540  0.1814
 2075SOL     OW 7665   1.035   2.918  11.460  0.3332 -0.4672  0.2397
 2075SOL    HW1 7666   1.128   2.916  11.485  0.4905 -1.6401 -0.3512
 2075SOL    HW2 7667   1.032   2.873  11.375 -0.7190 -0.0356  0.0310
 2076SOL     OW 7668   5.050   2.272   2.002 -0.7625 -0.1585  0.0173
 2076SOL    HW1 7669   5.142   2.263   2.025 -1.0224 -1.2952  0.6770
 2076SOL    HW2 7670   5.046   2.350   1.947  0.8529 -1.0296 -1.4020
 2077SOL     OW 7671   5.773   2.972  12.204  0.6097 -0.0551  0.5624
 2077SOL    HW1 7672   5.707   2.915  12.243 -0.6444  0.9528 -0.0504
 2077SOL    HW2 7673   5.857   2.934  12.233 -0.2195 -1.1929  1.5634
 2078SOL     OW 7674   5.863   5.491   8.501 -0.2284 -0.1260  0.4116
 2078SOL    HW1 7675   5.846   5.419   8.440 -0.0623 -1.3075  1.7207
 2078SOL    HW2 7676   5.852   5.453   8.588 -0.2731  1.4717  1.1518
 2079SOL     OW 7677   0.203   4.773   1.997  0.1020 -0.8593  0.3123
 2079SOL    HW1 7678   0.157   4.794   1.916 -1.6910 -1.6360  1.0697
 2079SOL    HW2 7679   0.133   4.748   2.058  1.2850  0.5711  2.3847
 2080SOL     OW 7680   2.772   4.888   3.731 -0.1205 -0.1335 -0.1730
 2080SOL    HW1 7681   2.803   4.835   3.805 -1.8878  1.6072  1.9638
 2080SOL    HW2 7682   2.820   4.971   3.739  1.0669 -0.5642 -2.1957
 2081SOL     OW 7683   5.676   3.902   2.311  0.5844 -0.1117 -0.1701
 2081SOL    HW1 7684   5.699   3.868   2.398  0.2483  2.0310  0.8209
 2081SOL    HW2 7685   5.603   3.846   2.283  1.2739 -1.4065  0.4905
 2082SOL     OW 7686   2.439   7.759   2.871 -0.0828 -0.3787 -0.2211
 2082SOL    HW1 7687   2.454   7.849   2.896  0.7220 -0.3921 -0.6222
 2082SOL    HW2 7688   2.353   7.738   2.907 -0.4110  0.6366 -0.3781
 2083SOL     OW 7689   2.498   3.581   0.170  0.2956 -0.5495 -0.4470
 2083SOL    HW1 7690   2.437   3.608   0.101 -1.2418 -1.0903  0.6459
 2083SOL    HW2 7691   2.568   3.646   0.167 -0.0323 -0.2280 -2.1228
 2084SOL     OW 7692   2.055   1.723  12.142  0.2301 -0.4923 -0.1799
 2084SOL    HW1 7693   2.006   1.646  12.113  2.0654 -2.0962  0.7128
 2084SOL    HW2 7694   2.145   1.692  12.151  0.5823  1.0265  2.7981
 2085SOL     OW 7695   4.040   2.625  11.222 -0.1817 -0.0056  0.1018
 2085SOL    HW1 7696   4.042   2.711  11.266 -0.2011  0.3121 -0.5132
 2085SOL    HW2 7697   4.030   2.646  11.129 -1.7985 -0.6985  0.0809
 2086SOL     OW 7698   3.342   0.758  10.381  0.2586 -0.0769 -0.0216
 2086SOL    HW1 7699   3.387   0.807  10.312  0.1133  0.1110  0.0151
 2086SOL    HW2 7700   3.307   0.825  10.440  1.4195 -0.2565  0.9038
 2087SOL     OW 7701   2.765   0.014   4.721  0.0504  0.1775 -0.2898
 2087SOL    HW1 7702   2.694  -0.011   4.780  0.1437  4.4535  1.9924
 2087SOL    HW2 7703   2.843  -0.024   4.761 -0.2459  0.5940  0.7128
 2088SOL     OW 7704   5.137   6.014   4.734  0.1767 -0.0115  0.3570
 2088SOL    HW1 7705   5.151   6.036   4.641  0.4243 -0.6683  0.2327
 2088SOL    HW2 7706   5.211   6.054   4.779  0.6859 -0.6674  0.1177
 2089SOL     OW 7707   2.642   4.153  10.894  0.3089 -0.1082 -0.0715
 2089SOL    HW1 7708   2.649   4.220  10.826  2.7409 -1.7077 -1.5485
 2089SOL    HW2 7709   2.562   4.105  10.872 -0.7501  1.4379  0.2436
 2090SOL     OW 7710   2.513   4.583   0.812  0.0130 -0.3793 -0.0241
 2090SOL    HW1 7711   2.578   4.652   0.801  1.4669 -1.5102  1.0979
 2090SOL    HW2 7712   2.503   4.575   0.907 -0.6873 -1.2095 -0.1617
 2091SOL     OW 7713   3.870   0.376  10.739 -0.1542 -0.3253  0.0440
 2091SOL    HW1 7714   3.948   0.394  10.791  0.0859  0.9548 -0.6885
 2091SOL    HW2 7715   3.837   0.463  10.716 -0.3081 -0.8207 -1.8075
 2092SOL     OW 7716   6.738   1.051   3.197  0.8438 -0.1738  0.3958
 2092SOL    HW1 7717   6.705   0.976   3.248  3.2363 -1.9079 -0.4540
 2092SOL    HW2 7718   6.795   1.098   3.258 -0.2252  0.6874  0.7616
 2093SOL     OW 7719   3.080   1.288   5.842  0.1991  0.0467 -0.9230
 2093SOL    HW1 7720   3.123   1.215   5.885 -0.9044 -0.5157 -0.7235
 2093SOL    HW2 7721   2.995   1.253   5.815 -0.6453  1.4260 -0.2023
 2094SOL     OW 7722   7.208   2.253   4.287  0.1165 -0.3735  0.0215
 2094SOL    HW1 7723   7.162   2.330   4.322  1.8362 -0.3832  2.6122
 2094SOL    HW2 7724   7.285   2.289   4.242  1.0441 -0.5010  1.4304
 2095SOL     OW 7725   5.641   7.699   5.876  0.1739 -0.0919  0.2965
 2095SOL    HW1 7726   5.648   7.771   5.813  1.4914  0.0841  0.6135
 2095SOL    HW2 7727   5.727   7.695   5.917 -0.6448 -0.2450  2.0729
 2096SOL     OW 7728   0.774   1.406   8.365  0.2674 -0.2556 -0.8739
 2096SOL    HW1 7729   0.687   1.445   8.378 -0.8045 -1.5915 -3.2087
 2096SOL    HW2 7730   0.803   1.440   8.280  2.4998  0.8519  0.2511
 2097SOL     OW 7731   2.197   5.856   5.267 -0.0733 -0.2325  0.6066
 2097SOL    HW1 7732   2.153   5.804   5.335 -0.8009 -1.0960 -0.4977
 2097SOL    HW2 7733   2.290   5.838   5.281 -0.1314  0.4674  2.0511
 2098SOL     OW 7734   5.947   3.006   1.282 -0.0424  0.3340  0.0174
 2098SOL    HW1 7735   5.851   3.008   1.281 -0.0349  1.0442  0.2551
 2098SOL    HW2 7736   5.969   2.933   1.339 -0.4465  0.3452  0.1939
 2099SOL     OW 7737   5.781   7.936   5.288 -0.0807 -0.0476  0.0183
 2099SOL    HW1 7738   5.792   7.854   5.239 -0.9392 -0.2712  0.1768
 2099SOL    HW2 7739   5.865   7.981   5.279  0.3716 -0.9029 -0.1540
 2100SOL     OW 7740   6.419   2.689   2.303  0.6349  0.5523 -0.2508
 2100SOL    HW1 7741   6.399   2.716   2.392  1.9389  1.6345 -0.2565
 2100SOL    HW2 7742   6.514   2.684   2.300  0.5839 -0.0664 -1.4213
 2101SOL     OW 7743   4.364   2.430   6.329  0.2616  0.3989 -0.4255
 2101SOL    HW1 7744   4.351   2.503   6.390  0.7770 -0.2384  0.4654
 2101SOL    HW2 7745   4.299   2.365   6.355  0.7425 -0.0375 -0.2910
 2102SOL     OW 7746   1.495   3.772   4.207 -0.5877 -0.3850  0.0830
 2102SOL    HW1 7747   1.527   3.850   4.163  0.2960 -0.4538  0.5962
 2102SOL    HW2 7748   1.504   3.791   4.301  0.3423 -1.3786  0.2117
 2103SOL     OW 7749   6.729   2.415   7.864 -0.0648 -0.6973 -0.4380
 2103SOL    HW1 7750   6.817   2.379   7.869 -0.2644 -1.4728 -1.9074
 2103SOL    HW2 7751   6.737   2.504   7.899  1.7618 -0.0142 -2.3898
 2104SOL     OW 7752   7.036   2.261   1.020 -0.4218 -0.1181  0.0305
 2104SOL    HW1 7753   7.091   2.195   0.978  0.7296 -0.2133  1.5962
 2104SOL    HW2 7754   7.045   2.338   0.963  0.2740 -0.5382 -0.4564
 2105SOL     OW 7755   3.397   2.292   8.271  0.0517 -0.2826 -0.2611
 2105SOL    HW1 7756   3.475   2.320   8.222  0.4291 -0.9310 -0.0382
 2105SOL    HW2 7757   3.375   2.206   8.235 -1.5365  0.5570 -1.4515
 2106SOL     OW 7758   5.720   3.196  10.414 -0.6783 -0.1393  0.1288
 2106SOL    HW1 7759   5.811   3.219  10.397 -0.9106  1.7073  1.1226
 2106SOL    HW2 7760   5.723   3.139  10.491 -0.2635 -1.5019 -0.8713
 2107SOL     OW 7761   5.359   1.025   2.432 -0.2429 -0.8113 -0.2382
 2107SOL    HW1 7762   5.320   1.066   2.355 -0.6773 -1.6030 -0.4417
 2107SOL    HW2 7763   5.330   1.080   2.505 -2.0966 -1.5944 -0.3361
 2108SOL     OW 7764   4.604   2.762   5.148  0.4337 -0.2858 -0.1671
 2108SOL    HW1 7765   4.614   2.812   5.229 -0.4742  0.6916 -0.6285
 2108SOL    HW2 7766   4.510   2.766   5.129  0.9690  2.5397 -3.0970
 2109SOL     OW 7767   3.217   5.833  10.800 -0.4139  0.0925 -0.0550
 2109SOL    HW1 7768   3.137   5.871  10.836 -0.3090 -0.3303  0.6605
 2109SOL    HW2 7769   3.247   5.896  10.734 -1.6406 -0.0262 -0.7480
 2110SOL     OW 7770   3.737   3.522  12.029  0.5575 -0.1584 -0.2317
 2110SOL    HW1 7771   3.737   3.617  12.039 -2.0549 -0.2253  1.2144
 2110SOL    HW2 7772   3.690   3.506  11.947 -0.1070 -0.1994  0.1471
 2111SOL     OW 7773   3.191   5.266  10.447 -0.1188 -0.0010  0.4223
 2111SOL    HW1 7774   3.121   5.237  10.505  0.4673 -1.4076  0.4469
 2111SOL    HW2 7775   3.251   5.313  10.505 -0.2686 -0.1298  0.6859
 2112SOL     OW 7776   6.905   6.792   6.034 -0.0611 -0.2485  0.4826
 2112SOL    HW1 7777   6.945   6.861   5.981 -1.6567 -0.9727 -1.8013
 2112SOL    HW2 7778   6.848   6.839   6.096  0.2631  0.5465  0.1895
 2113SOL     OW 7779   2.213   1.179   0.367  0.0622 -0.1695 -0.2055
 2113SOL    HW1 7780   2.245   1.149   0.282  2.4755 -0.0489  0.6035
 2113SOL    HW2 7781   2.236   1.109   0.428 -3.3168 -1.1342  0.1669
 2114SOL     OW 7782   4.846   4.838   5.418  0.8345 -0.4592  0.1184
 2114SOL    HW1 7783   4.755   4.825   5.394  0.1601  2.4972  0.7524
 2114SOL    HW2 7784   4.843   4.875   5.506  2.5513  0.7227 -0.2679
 2115SOL     OW 7785   0.891   3.005   7.646  0.3115 -0.4146  0.0816
 2115SOL    HW1 7786   0.955   3.066   7.682 -0.2555 -0.6659  1.5880
 2115SOL    HW2 7787   0.829   3.061   7.598  0.6361  0.0227  0.1688
 2116SOL     OW 7788   5.114   3.250   5.993 -0.2721 -0.6869 -0.3766
 2116SOL    HW1 7789   5.114   3.301   5.912 -2.6360  0.6290  0.3542
 2116SOL    HW2 7790   5.178   3.180   5.977 -0.2178 -0.1321 -3.1282
 2117SOL     OW 7791   2.837   1.454  10.193 -0.4023 -0.1361  0.5745
 2117SOL    HW1 7792   2.777   1.454  10.268 -1.5425  1.7983 -0.2537
 2117SOL    HW2 7793   2.805   1.383  10.137 -1.9314  0.7968  0.1944
 2118SOL     OW 7794   4.447   0.177   4.220  0.2805 -0.1368 -0.4628
 2118SOL    HW1 7795   4.444   0.250   4.281  0.2957 -0.2411 -0.3365
 2118SOL    HW2 7796   4.489   0.212   4.142  1.8106 -0.4401  0.1983
 2119SOL     OW 7797   5.561   6.817  11.780 -0.6484 -0.3775 -0.2462
 2119SOL    HW1 7798   5.557   6.760  11.857  3.5076 -0.4159  0.1838
 2119SOL    HW2 7799   5.595   6.761  11.711 -0.6908  0.5642 -1.0512
 2120SOL     OW 7800   4.552   3.545   7.759  0.0970 -0.0158 -0.1655
 2120SOL    HW1 7801   4.602   3.620   7.791  0.5089 -0.2713 -0.2032
 2120SOL    HW2 7802   4.616   3.490   7.715 -0.0894 -0.6922  0.3896
 2121SOL     OW 7803   4.414   5.701   2.813  0.1844  0.1570 -0.2766
 2121SOL    HW1 7804   4.450   5.765   2.752  0.7325  1.2620  1.1382
 2121SOL    HW2 7805   4.329   5.737   2.838  0.8013  0.7335  1.0697
 2122SOL     OW 7806   2.147   3.588   1.862  0.3392 -0.0876  0.0314
 2122SOL    HW1 7807   2.135   3.678   1.834 -2.4286  0.3317  2.0751
 2122SOL    HW2 7808   2.079   3.539   1.817 -0.7946 -0.3352  1.8908
 2123SOL     OW 7809   4.131   5.159  10.518  0.4731 -0.0971 -0.1941
 2123SOL    HW1 7810   4.120   5.154  10.423 -0.1216 -1.8117 -0.0632
 2123SOL    HW2 7811   4.118   5.070  10.549 -0.2187  0.5754  1.5991
 2124SOL     OW 7812   7.081   4.173   1.958  0.0325  0.2415  0.7551
 2124SOL    HW1 7813   7.152   4.191   2.020 -1.7833 -0.0551  3.0536
 2124SOL    HW2 7814   7.016   4.125   2.009 -0.7017 -1.8962 -1.9679
 2125SOL     OW 7815   0.701   5.282   5.796 -0.3310  0.6875  0.9029
 2125SOL    HW1 7816   0.783   5.330   5.783 -0.6514  1.1550  0.5899
 2125SOL    HW2 7817   0.633   5.349   5.795 -0.9989  0.0904 -1.6652
 2126SOL     OW 7818   1.655   0.577  10.685 -0.0206  0.2019  0.0983
 2126SOL    HW1 7819   1.644   0.487  10.654  1.9337 -0.6330  1.5825
 2126SOL    HW2 7820   1.719   0.570  10.755  1.5080  2.9838 -0.8577
 2127SOL     OW 7821   0.854   3.123   1.659  0.6385 -0.2293  0.0405
 2127SOL    HW1 7822   0.853   3.043   1.606  0.1233  0.2056 -0.6319
 2127SOL    HW2 7823   0.761   3.140   1.677  0.7818 -0.0991  0.6702
 2128SOL     OW 7824   6.269   4.352   4.649  0.5551 -0.6249  0.5427
 2128SOL    HW1 7825   6.187   4.315   4.617  0.7555 -0.5445 -0.0809
 2128SOL    HW2 7826   6.298   4.291   4.717  0.2329 -0.9259  0.4127
 2129SOL     OW 7827   5.575   0.661   4.631  0.6352 -0.6870 -0.1451
 2129SOL    HW1 7828   5.635   0.735   4.628 -0.4827  0.2322 -0.4306
 2129SOL    HW2 7829   5.502   0.687   4.575 -1.4057 -0.5295  2.3949
 2130SOL     OW 7830   6.425   7.275   4.849 -0.6638 -0.1673  0.0533
 2130SOL    HW1 7831   6.508   7.232   4.831 -0.3778  0.4115 -0.0207
 2130SOL    HW2 7832   6.378   7.272   4.765 -0.2457  0.5322 -0.2083
 2131SOL     OW 7833   1.714   1.878  10.861 -0.6427 -0.0741 -0.2775
 2131SOL    HW1 7834   1.650   1.815  10.895 -0.9094  0.4915  0.2852
 2131SOL    HW2 7835   1.757   1.914  10.939 -1.5646  1.5594 -0.4725
 2132SOL     OW 7836   4.138   5.343   1.489  0.2565  0.0083 -0.0958
 2132SOL    HW1 7837   4.205   5.285   1.454  1.3243  0.9305  0.3706
 2132SOL    HW2 7838   4.114   5.399   1.416  0.7444  0.3599  0.0158
 2133SOL     OW 7839   5.778   5.898   6.344  0.1754  0.7365  0.4842
 2133SOL    HW1 7840   5.687   5.867   6.343  0.7848 -1.2141  0.7349
 2133SOL    HW2 7841   5.797   5.920   6.253 -0.3384  0.5452  0.3232
 2134SOL     OW 7842   7.335   1.512   2.265  0.8080 -0.0097  0.0623
 2134SOL    HW1 7843   7.405   1.448   2.275  1.3016  0.1787 -1.8645
 2134SOL    HW2 7844   7.379   1.597   2.269  0.7559  0.1058 -1.3559
 2135SOL     OW 7845   2.263   4.684   4.976  0.7971 -0.1325  0.1311
 2135SOL    HW1 7846   2.205   4.635   4.918  2.3295 -1.5899 -0.2674
 2135SOL    HW2 7847   2.313   4.741   4.918  0.0464  0.8482  0.4282
 2136SOL     OW 7848   5.816   4.230   6.016 -0.1663 -0.0659 -0.2238
 2136SOL    HW1 7849   5.793   4.207   5.927 -2.3485  1.7119 -0.1942
 2136SOL    HW2 7850   5.871   4.308   6.008 -0.0916 -0.0945 -0.0185
 2137SOL     OW 7851   1.040   3.653  11.636  0.2656  0.2189  0.1251
 2137SOL    HW1 7852   0.962   3.629  11.687  0.7323 -0.4250  0.5510
 2137SOL    HW2 7853   1.080   3.570  11.612  0.1074  0.5161 -1.2473
 2138SOL     OW 7854   0.002   3.678   5.266 -0.0397  0.1320  0.4609
 2138SOL    HW1 7855  -0.060   3.714   5.202  0.4748 -2.0388 -1.3633
 2138SOL    HW2 7856   0.078   3.653   5.214  1.2610  0.1899  2.2707
 2139SOL     OW 7857   4.970   6.827  11.448  0.0267  0.8363  0.0998
 2139SOL    HW1 7858   4.979   6.757  11.384 -1.0594  1.7600 -1.1081
 2139SOL    HW2 7859   5.027   6.800  11.521 -0.0226 -1.0624 -0.5046
 2140SOL     OW 7860   1.049   1.944   1.433  0.4048  0.3139 -0.6043
 2140SOL    HW1 7861   1.010   1.958   1.519 -0.4879  3.0486 -1.3606
 2140SOL    HW2 7862   1.050   1.848   1.422 -2.5337 -0.0206  1.0671
 2141SOL     OW 7863   6.734   4.381   3.189  0.7764  0.0051 -0.0549
 2141SOL    HW1 7864   6.677   4.318   3.144  0.7683 -0.2447  0.2970
 2141SOL    HW2 7865   6.817   4.335   3.198  0.1101 -0.8912  2.2974
 2142SOL     OW 7866   7.776   2.879   3.825  0.0620  0.3325 -0.0192
 2142SOL    HW1 7867   7.847   2.940   3.803 -1.6166  2.2117 -0.5013
 2142SOL    HW2 7868   7.753   2.839   3.742  2.0598 -2.1344  0.4880
 2143SOL     OW 7869   4.722   7.078   5.119 -0.4073 -0.6252 -0.8004
 2143SOL    HW1 7870   4.728   7.174   5.124 -0.3642 -0.4560 -3.0135
 2143SOL    HW2 7871   4.630   7.059   5.135 -0.0327 -0.5010  2.1132
 2144SOL     OW 7872   0.089   4.122   9.097 -0.3461 -0.2324 -0.5468
 2144SOL    HW1 7873   0.036   4.055   9.141 -1.1468 -0.9548 -2.5148
 2144SOL    HW2 7874   0.025   4.174   9.048  0.1920  2.3064  1.2227
 2145SOL     OW 7875   4.589   6.237   5.551  0.0052  0.3690 -0.1060
 2145SOL    HW1 7876   4.581   6.159   5.494  1.1484 -0.9209  1.4133
 2145SOL    HW2 7877   4.574   6.311   5.492  1.7316 -0.8599 -2.2455
 2146SOL     OW 7878   1.571   4.363  11.792  0.3532  0.3169  0.5572
 2146SOL    HW1 7879   1.500   4.332  11.736  0.7765 -3.3234  1.7958
 2146SOL    HW2 7880   1.543   4.340  11.881  3.0428 -1.3532  1.0747
 2147SOL     OW 7881   5.472   4.994   6.572  0.2378  0.2687 -0.0657
 2147SOL    HW1 7882   5.490   4.987   6.478  1.1149  1.7764 -0.0324
 2147SOL    HW2 7883   5.544   5.047   6.607 -0.6709  0.6775  1.2647
 2148SOL     OW 7884   1.431   3.510   6.243  0.6365 -0.4679 -0.1726
 2148SOL    HW1 7885   1.502   3.449   6.263  1.7740  0.8954  0.0907
 2148SOL    HW2 7886   1.475   3.586   6.204 -0.7566  0.1441 -0.6086
 2149SOL     OW 7887   6.778   4.983   1.495 -0.0708 -1.0814 -0.3647
 2149SOL    HW1 7888   6.723   5.041   1.443 -1.0984 -0.5430  1.2598
 2149SOL    HW2 7889   6.864   5.025   1.495 -0.5574 -0.0666 -0.0124
 2150SOL     OW 7890   6.991   0.552   9.810 -0.1618 -0.5354 -0.1093
 2150SOL    HW1 7891   6.959   0.473   9.766  0.4561  0.3606 -2.2813
 2150SOL    HW2 7892   6.926   0.619   9.789  0.5387  0.0958 -0.2949
 2151SOL     OW 7893   6.489   3.615   5.330 -0.6425  0.5247 -0.2979
 2151SOL    HW1 7894   6.543   3.646   5.403  0.3776  2.3041 -1.7414
 2151SOL    HW2 7895   6.422   3.682   5.319 -1.6125 -0.3903 -0.2134
 2152SOL     OW 7896   4.528   5.078  10.860 -0.6434 -0.0666  0.5688
 2152SOL    HW1 7897   4.586   5.154  10.850 -0.1894 -0.1893  2.0682
 2152SOL    HW2 7898   4.452   5.112  10.907 -0.2794 -0.5873  1.5626
 2153SOL     OW 7899   2.890   4.384   8.724  0.0827  0.6899  0.3825
 2153SOL    HW1 7900   2.904   4.419   8.812 -0.7877 -1.6720  1.5292
 2153SOL    HW2 7901   2.796   4.395   8.709 -0.4050 -1.8076  1.1543
 2154SOL     OW 7902   0.209   5.273  11.122 -0.5052  0.4486 -0.8864
 2154SOL    HW1 7903   0.292   5.317  11.140  0.9087 -2.7244  1.2823
 2154SOL    HW2 7904   0.216   5.244  11.031  1.1482 -0.4242 -0.5199
 2155SOL     OW 7905   5.335   2.972   4.607 -0.2299 -0.3499 -0.1436
 2155SOL    HW1 7906   5.291   2.990   4.690  2.4234  0.2389  1.2466
 2155SOL    HW2 7907   5.311   3.046   4.551 -1.9794 -0.7079  0.0915
 2156SOL     OW 7908   0.400   4.011  10.049  0.3029 -0.2633  0.4405
 2156SOL    HW1 7909   0.438   3.932  10.009  0.7463  0.2549 -0.1808
 2156SOL    HW2 7910   0.447   4.083  10.007 -1.1155  0.3935 -0.0744
 2157SOL     OW 7911   3.346   2.227   4.508  0.1036  0.2714 -0.2777
 2157SOL    HW1 7912   3.382   2.175   4.579  0.6257 -0.2689 -0.9195
 2157SOL    HW2 7913   3.415   2.288   4.485 -0.1135  0.5359 -0.2330
 2158SOL     OW 7914   3.398   1.976   5.916  0.6447  0.0309 -0.3053
 2158SOL    HW1 7915   3.322   1.976   5.857 -1.6002  0.9116  2.3311
 2158SOL    HW2 7916   3.416   2.068   5.932  0.5076 -0.1500  1.0925
 2159SOL     OW 7917   3.503   7.821   7.762 -0.7123 -0.2766  0.3146
 2159SOL    HW1 7918   3.555   7.764   7.705 -0.1425  1.1661 -0.6446
 2159SOL    HW2 7919   3.413   7.812   7.729 -0.3861  0.5431 -0.8325
 2160SOL     OW 7920   5.504   7.213   9.969  0.5830  0.2532  0.1496
 2160SOL    HW1 7921   5.448   7.144  10.005 -0.4208  1.5004  1.0156
 2160SOL    HW2 7922   5.457   7.244   9.892  0.8496  0.2566 -0.0143
 2161SOL     OW 7923   0.280   3.463  10.634  0.4359 -0.1821 -0.1467
 2161SOL    HW1 7924   0.290   3.453  10.729  0.2990 -1.4702 -0.2491
 2161SOL    HW2 7925   0.217   3.395  10.609  0.2727  0.3132 -1.1257
 2162SOL     OW 7926   5.805   2.315   7.825 -0.2138  0.0366 -0.5994
 2162SOL    HW1 7927   5.824   2.330   7.918 -1.0377 -2.7848  0.1291
 2162SOL    HW2 7928   5.781   2.401   7.792  1.0735  1.3234  1.5423
 2163SOL     OW 7929   1.439   7.779   5.715 -0.2088  0.3997  0.3919
 2163SOL    HW1 7930   1.521   7.826   5.702 -0.0464  0.0346  0.0583
 2163SOL    HW2 7931   1.374   7.847   5.730 -0.1948  0.8030 -1.2154
 2164SOL     OW 7932   3.782   0.330   9.297  0.5503  0.1108 -0.2923
 2164SOL    HW1 7933   3.767   0.284   9.379 -2.7288  0.4240 -0.5933
 2164SOL    HW2 7934   3.753   0.419   9.313 -0.1356  0.1875 -1.7664
 2165SOL     OW 7935   0.496   0.520   1.400 -0.0656 -0.5329 -0.2472
 2165SOL    HW1 7936   0.525   0.567   1.322 -0.8498  0.0674 -0.1905
 2165SOL    HW2 7937   0.541   0.564   1.473 -1.7387  1.0026 -0.0666
 2166SOL     OW 7938   3.410   5.056   5.369  0.0116 -0.4501  0.0153
 2166SOL    HW1 7939   3.349   5.065   5.442 -0.5576  1.1248 -0.6060
 2166SOL    HW2 7940   3.389   4.972   5.329 -0.1585 -0.9868  1.2174
 2167SOL     OW 7941   6.924   5.362  12.438  0.1599 -0.4781 -0.2027
 2167SOL    HW1 7942   6.980   5.338  12.512 -0.0917  0.4386  0.2929
 2167SOL    HW2 7943   6.964   5.318  12.363  1.5241  0.1069  0.1470
 2168SOL     OW 7944   7.438   4.112   8.608  0.3159  0.2541  0.1185
 2168SOL    HW1 7945   7.466   4.203   8.592  1.4284  0.0662  0.8650
 2168SOL    HW2 7946   7.519   4.067   8.633 -0.1543 -1.0445 -0.6410
 2169SOL     OW 7947   5.078   1.938   4.758  0.0445  0.3332 -0.2042
 2169SOL    HW1 7948   5.170   1.925   4.780 -0.3190 -0.3952  0.9493
 2169SOL    HW2 7949   5.060   2.029   4.781  0.2207  0.1818  0.5424
 2170SOL     OW 7950   6.911   1.797   5.360  0.2220  0.0070 -0.6597
 2170SOL    HW1 7951   7.001   1.767   5.348 -0.0970 -0.4107 -2.2609
 2170SOL    HW2 7952   6.910   1.836   5.447  2.1057  0.5436 -0.8309
 2171SOL     OW 7953   5.304   7.384   1.662 -0.3400 -0.2818  0.0434
 2171SOL    HW1 7954   5.335   7.466   1.623 -0.6423  0.0404  0.4682
 2171SOL    HW2 7955   5.366   7.318   1.632  1.1483  0.4388  1.3655
 2172SOL     OW 7956   5.319   1.263   3.684  0.5642 -0.0212  0.1513
 2172SOL    HW1 7957   5.414   1.253   3.671  0.3191 -1.9304 -0.4429
 2172SOL    HW2 7958   5.283   1.176   3.669 -1.4855  0.9853 -1.2889
 2173SOL     OW 7959   0.998   3.169  10.914  0.3646 -0.1839 -0.9016
 2173SOL    HW1 7960   1.032   3.081  10.898  0.6549  0.0429 -1.5695
 2173SOL    HW2 7961   1.072   3.227  10.894  0.9681  0.1338  1.7916
 2174SOL     OW 7962   6.193   1.186   1.966  0.2510 -0.4070 -0.0770
 2174SOL    HW1 7963   6.184   1.090   1.965  0.2122 -0.5894  3.7138
 2174SOL    HW2 7964   6.109   1.218   1.934 -0.7123 -1.6933  1.0551
 2175SOL     OW 7965   5.877   1.247   6.839 -0.7445  0.1400  0.3032
 2175SOL    HW1 7966   5.853   1.303   6.912 -1.4033 -1.1615  1.1185
 2175SOL    HW2 7967   5.907   1.166   6.880 -3.6475 -1.6631 -0.8316
 2176SOL     OW 7968   5.896   0.985  11.154  0.3201  0.5464  0.3841
 2176SOL    HW1 7969   5.857   0.910  11.199  0.3459  1.4254  1.9408
 2176SOL    HW2 7970   5.925   1.043  11.224 -1.3831  2.9087 -0.7470
 2177SOL     OW 7971   5.506   3.635   6.207 -0.0070 -0.2966 -0.9091
 2177SOL    HW1 7972   5.428   3.690   6.221 -0.2260 -0.6643 -0.6617
 2177SOL    HW2 7973   5.470   3.548   6.187  0.3459 -0.5457 -0.4715
 2178SOL     OW 7974   6.059   1.156  10.494  0.4615 -0.2044  0.0107
 2178SOL    HW1 7975   6.071   1.247  10.469  0.9893 -0.1009  0.5942
 2178SOL    HW2 7976   5.975   1.154  10.540 -1.0792 -0.6079 -2.6314
 2179SOL     OW 7977   1.259   6.086  10.104 -0.2717 -0.8064 -0.0404
 2179SOL    HW1 7978   1.263   6.023  10.032  0.8259 -0.3653 -0.3779
 2179SOL    HW2 7979   1.306   6.044  10.176  1.4475  0.0252 -0.6118
 2180SOL     OW 7980   3.659   5.448   9.033  0.1151 -0.6682  0.0451
 2180SOL    HW1 7981   3.627   5.464   8.944  1.0007 -1.0255 -0.3531
 2180SOL    HW2 7982   3.723   5.377   9.023  0.2313 -0.7042  0.9652
 2181SOL     OW 7983   4.360   2.388   4.504  0.1312  0.0638  0.0600
 2181SOL    HW1 7984   4.301   2.372   4.577 -0.2470  1.3195  0.0472
 2181SOL    HW2 7985   4.446   2.363   4.536 -0.1899 -0.4008  0.5686
 2182SOL     OW 7986   2.383   4.758  11.735  0.9627 -0.6266  0.2722
 2182SOL    HW1 7987   2.378   4.674  11.781  0.6408 -0.7620 -0.0038
 2182SOL    HW2 7988   2.417   4.736  11.649  1.9789 -0.3149  0.5866
 2183SOL     OW 7989   2.747   3.603   6.135 -0.4045 -0.2762 -0.1777
 2183SOL    HW1 7990   2.712   3.574   6.219  0.9817 -1.5269  0.0168
 2183SOL    HW2 7991   2.842   3.606   6.148 -0.1953  0.0062 -1.5595
 2184SOL     OW 7992   0.964   6.833   0.731 -0.1521 -0.2146  0.5885
 2184SOL    HW1 7993   0.873   6.803   0.728  0.2791 -1.5953  0.4301
 2184SOL    HW2 7994   0.965   6.901   0.798 -1.3337 -0.0335  0.4451
 2185SOL     OW 7995   5.727   3.775   2.595 -0.0319 -0.3015  0.2505
 2185SOL    HW1 7996   5.651   3.752   2.649  0.1484 -0.8779  0.2606
 2185SOL    HW2 7997   5.794   3.710   2.618  1.4913  1.8276  2.3708
 2186SOL     OW 7998   2.335   4.059  10.886 -0.1936  0.2645  0.1698
 2186SOL    HW1 7999   2.300   4.147  10.902  0.0012  0.1079  1.5677
 2186SOL    HW2 8000   2.289   4.030  10.807 -2.1855  0.6255  1.1335
 2187SOL     OW 8001   6.359   4.172   6.311  0.0311 -0.1368 -0.3579
 2187SOL    HW1 8002   6.343   4.098   6.370  2.6343 -0.2390  0.3499
 2187SOL    HW2 8003   6.381   4.131   6.227  0.6361 -0.1712 -0.1906
 2188SOL     OW 8004   5.538   0.518  10.660 -0.1614  0.7141  0.2657
 2188SOL    HW1 8005   5.605   0.479  10.717  0.1580  1.0325  0.1082
 2188SOL    HW2 8006   5.512   0.447  10.602  0.2672  0.6714  0.1214
 2189SOL     OW 8007   7.179   1.244   5.071  0.5390 -0.0914  0.0575
 2189SOL    HW1 8008   7.141   1.331   5.084 -1.6325 -1.1113  0.9961
 2189SOL    HW2 8009   7.236   1.254   4.994  0.4036  2.1409  0.1800
 2190SOL     OW 8010   7.539   7.518   1.332 -0.2780  0.7394 -0.2603
 2190SOL    HW1 8011   7.454   7.497   1.295  0.2363 -1.1296 -0.5202
 2190SOL    HW2 8012   7.559   7.444   1.389  0.2689  2.1411  1.4685
 2191SOL     OW 8013   2.309   7.118  12.192 -0.2882  0.3277  0.1626
 2191SOL    HW1 8014   2.391   7.165  12.209 -0.3662  0.3768  0.4141
 2191SOL    HW2 8015   2.316   7.089  12.101  1.5039 -2.6433  1.1239
 2192SOL     OW 8016   3.536   0.960   4.242  0.3213  0.3144 -0.1843
 2192SOL    HW1 8017   3.548   1.043   4.196  1.6323  0.7722  0.9333
 2192SOL    HW2 8018   3.561   0.894   4.177  0.5050  0.8578 -0.6799
 2193SOL     OW 8019   1.139   7.186   4.424 -0.5842 -0.8574  0.2671
 2193SOL    HW1 8020   1.073   7.254   4.410  2.1043  1.5185 -2.5712
 2193SOL    HW2 8021   1.186   7.213   4.503 -0.1951  0.0501 -0.2611
 2194SOL     OW 8022   5.943   5.064   8.583  0.9662 -0.3387 -0.3779
 2194SOL    HW1 8023   6.037   5.046   8.570  0.6863 -3.3753  0.8824
 2194SOL    HW2 8024   5.916   5.000   8.648 -1.5745  1.9180  0.9756
 2195SOL     OW 8025   3.274   6.978   2.047  0.3247  0.1849 -0.0312
 2195SOL    HW1 8026   3.323   7.060   2.050  1.2391 -0.3707  1.0636
 2195SOL    HW2 8027   3.202   6.992   2.109 -0.1444  0.5191 -0.6355
 2196SOL     OW 8028   0.583   4.265   3.029  0.5587 -0.2738 -0.2589
 2196SOL    HW1 8029   0.584   4.175   3.061 -1.1138  0.8305  3.4218
 2196SOL    HW2 8030   0.544   4.315   3.100  0.9243  3.3292 -2.3680
 2197SOL     OW 8031   6.878   6.039   2.133  0.2949  0.4603  0.2687
 2197SOL    HW1 8032   6.930   5.981   2.189  1.9382  0.6470 -0.9654
 2197SOL    HW2 8033   6.851   6.110   2.190 -0.9241 -0.9927  1.5775
 2198SOL     OW 8034   3.207   5.590   2.152 -0.1227  0.1401  0.2162
 2198SOL    HW1 8035   3.165   5.666   2.193  0.1921  0.8583 -0.7441
 2198SOL    HW2 8036   3.290   5.580   2.199 -0.1231  0.4681  0.2929
 2199SOL     OW 8037   3.341   6.600   6.783  0.3929 -0.3831  0.0333
 2199SOL    HW1 8038   3.317   6.612   6.875  1.7828  1.1480  0.2576
 2199SOL    HW2 8039   3.397   6.522   6.782 -1.1459 -1.5290  0.1434
 2200SOL     OW 8040   7.794   1.917   6.267  0.3104  0.0221  0.3242
 2200SOL    HW1 8041   7.709   1.884   6.296 -0.2285 -0.5527 -1.7348
 2200SOL    HW2 8042   7.853   1.842   6.276 -0.4182 -0.9753 -2.2340
 2201SOL     OW 8043   0.315   4.942  12.129 -0.5435 -0.1123 -0.3395
 2201SOL    HW1 8044   0.381   5.009  12.114 -1.0486  0.8439  1.4350
 2201SOL    HW2 8045   0.354   4.883  12.193 -1.6269  0.8783  1.2981
 2202SOL     OW 8046   0.127   4.372   7.028 -0.8697  0.3688  0.0412
 2202SOL    HW1 8047   0.106   4.431   6.955  2.9276  1.7150 -0.1665
 2202SOL    HW2 8048   0.212   4.334   7.005 -0.5708 -0.8737  2.7924
 2203SOL     OW 8049   4.064   2.391   3.499 -0.1039  0.4243 -0.7219
 2203SOL    HW1 8050   4.156   2.398   3.474  0.1390 -0.7635 -0.2283
 2203SOL    HW2 8051   4.044   2.475   3.541  1.6726 -0.3704  1.9839
 2204SOL     OW 8052   2.953   5.639   5.963  0.0064 -0.2136 -0.4528
 2204SOL    HW1 8053   2.959   5.545   5.977 -0.7622 -0.2091 -0.0092
 2204SOL    HW2 8054   3.042   5.671   5.972 -0.1249 -0.4429  2.9451
 2205SOL     OW 8055   4.737   3.825   8.916 -0.0887  0.2905 -0.0200
 2205SOL    HW1 8056   4.822   3.788   8.893 -0.8775 -2.3927  1.0053
 2205SOL    HW2 8057   4.686   3.819   8.835  1.2652  4.2254 -1.3970
 2206SOL     OW 8058   1.332   3.907  12.227 -0.3029 -0.3478  0.3888
 2206SOL    HW1 8059   1.317   3.999  12.210 -0.7140 -0.5113 -0.1646
 2206SOL    HW2 8060   1.254   3.878  12.274 -0.0354 -0.3448  0.8409
 2207SOL     OW 8061   2.334   0.820   3.667 -0.2605 -0.5499 -0.1858
 2207SOL    HW1 8062   2.249   0.811   3.709 -1.0386  1.6735 -1.1336
 2207SOL    HW2 8063   2.317   0.870   3.588  2.0819  1.1408  0.2500
 2208SOL     OW 8064   1.384   0.719   2.960 -0.1103  0.2723 -0.2095
 2208SOL    HW1 8065   1.322   0.769   3.012  0.2170 -1.3125  1.8660
 2208SOL    HW2 8066   1.448   0.783   2.930 -0.8191  1.4051  0.6171
 2209SOL     OW 8067   0.235   3.882   0.157 -0.1000 -0.0691 -0.0540
 2209SOL    HW1 8068   0.299   3.822   0.196  0.9549  0.8726 -0.2828
 2209SOL    HW2 8069   0.187   3.917   0.232  0.3850  0.0363  0.2080
 2210SOL     OW 8070   3.972   5.278   3.234 -0.5913 -0.1559  0.0010
 2210SOL    HW1 8071   3.977   5.239   3.322 -1.7956  0.7953  0.5184
 2210SOL    HW2 8072   3.887   5.322   3.232  0.3981  1.8679 -0.7808
 2211SOL     OW 8073   4.267   0.101   4.016 -0.1547 -0.3380  0.4924
 2211SOL    HW1 8074   4.296   0.018   3.978 -1.9700 -0.6828 -0.2774
 2211SOL    HW2 8075   4.319   0.111   4.095 -0.6175 -2.7784  1.1826
 2212SOL     OW 8076   5.160   4.968   3.424  0.4613 -0.1057  0.3267
 2212SOL    HW1 8077   5.135   5.045   3.373  0.6023  0.6694  1.3725
 2212SOL    HW2 8078   5.246   4.944   3.390 -0.2284 -0.7527 -1.0359
 2213SOL     OW 8079   6.622   0.129   5.680  0.0905 -0.0910 -0.2119
 2213SOL    HW1 8080   6.632   0.220   5.652  0.8205  0.0668  0.5142
 2213SOL    HW2 8081   6.698   0.084   5.642 -1.9608 -1.1976 -3.4669
 2214SOL     OW 8082   2.019   5.169   1.418  0.3574 -0.5365 -0.5992
 2214SOL    HW1 8083   2.047   5.198   1.331 -1.5421 -0.4846 -1.2438
 2214SOL    HW2 8084   1.998   5.249   1.465  0.1853 -0.6194 -0.5327
 2215SOL     OW 8085   4.481   0.250   0.638 -0.7903 -0.3775  0.1437
 2215SOL    HW1 8086   4.413   0.292   0.585  0.0271  1.0083  0.1533
 2215SOL    HW2 8087   4.535   0.322   0.669 -0.0911 -1.3446  1.2421
 2216SOL     OW 8088   5.623   0.032   9.357  0.3101 -0.4481 -0.4136
 2216SOL    HW1 8089   5.594  -0.052   9.393  0.1357  0.2577  1.1947
 2216SOL    HW2 8090   5.689   0.063   9.419  0.7527  0.3707 -1.2656
 2217SOL     OW 8091   7.569   6.341   1.562  0.1952  1.0984  0.1099
 2217SOL    HW1 8092   7.643   6.401   1.566  0.1008  1.1246  1.8259
 2217SOL    HW2 8093   7.501   6.392   1.516  0.2919  2.1320  1.0660
 2218SOL     OW 8094   6.124   1.762   6.248  0.1444  0.4605  0.2997
 2218SOL    HW1 8095   6.073   1.838   6.277  1.1880  1.7594 -1.1446
 2218SOL    HW2 8096   6.068   1.719   6.183 -0.2305  0.2782  0.7351
 2219SOL     OW 8097   5.079   0.313  11.491  0.4465 -0.0210  0.2998
 2219SOL    HW1 8098   5.102   0.228  11.453  0.7999  0.5748 -0.8526
 2219SOL    HW2 8099   5.034   0.291  11.572 -1.0766 -1.3696 -0.8469
 2220SOL     OW 8100   3.803   1.665   0.647 -0.2380  0.0182 -0.0709
 2220SOL    HW1 8101   3.713   1.649   0.619 -0.6053  0.2147  0.9880
 2220SOL    HW2 8102   3.849   1.583   0.626 -0.4145  0.2515 -1.5031
 2221SOL     OW 8103   4.542   5.815   8.838 -0.3004 -0.1023 -0.4168
 2221SOL    HW1 8104   4.461   5.765   8.844 -1.0134  0.8513 -1.6662
 2221SOL    HW2 8105   4.585   5.781   8.759 -0.1932  0.3891 -0.5702
 2222SOL     OW 8106   4.769   6.191   0.733 -0.1337  0.1080  0.1649
 2222SOL    HW1 8107   4.733   6.148   0.810 -0.6524  0.6722  0.2439
 2222SOL    HW2 8108   4.698   6.247   0.701  0.6091  1.1265  0.2317
 2223SOL     OW 8109   6.535   1.997   9.015  0.4104 -0.3093 -0.1056
 2223SOL    HW1 8110   6.519   1.935   8.943 -1.5210 -0.0025  0.0058
 2223SOL    HW2 8111   6.463   1.982   9.076  0.8076  0.9330  0.7044
 2224SOL     OW 8112   4.128   2.068   9.576  0.6577  0.0012  0.5118
 2224SOL    HW1 8113   4.103   1.987   9.532  0.7052  0.8518 -1.1517
 2224SOL    HW2 8114   4.046   2.101   9.614  0.1261  0.3668 -0.8774
 2225SOL     OW 8115   6.138   5.727   2.407 -0.8458  0.1809 -0.1451
 2225SOL    HW1 8116   6.222   5.682   2.401 -0.9184  0.1757 -2.0180
 2225SOL    HW2 8117   6.082   5.682   2.344 -1.9621  0.7863  0.3774
 2226SOL     OW 8118   5.213   7.493   0.768  0.1052 -0.1332 -0.0645
 2226SOL    HW1 8119   5.257   7.507   0.684 -0.1662  0.1786 -0.1589
 2226SOL    HW2 8120   5.155   7.419   0.752 -0.8618  0.6939 -0.5261
 2227SOL     OW 8121   2.565   3.193   7.683 -0.0740 -0.0223 -0.4618
 2227SOL    HW1 8122   2.648   3.218   7.724  0.1040 -1.6232  0.2277
 2227SOL    HW2 8123   2.590   3.139   7.608 -0.4844 -0.5144 -0.2496
 2228SOL     OW 8124   7.314   6.809   5.917  0.0438  0.3940  0.0047
 2228SOL    HW1 8125   7.274   6.834   5.834 -0.0175  3.0225  0.7579
 2228SOL    HW2 8126   7.257   6.740   5.951 -1.0155  0.6175 -1.2283
 2229SOL     OW 8127   2.111   4.139   2.060 -0.1897  0.0228 -0.0078
 2229SOL    HW1 8128   2.029   4.107   2.022 -0.5015 -0.4022  0.9802
 2229SOL    HW2 8129   2.135   4.215   2.006 -1.3536  0.2956 -0.1720
 2230SOL     OW 8130   7.303   3.580   3.260  0.2733 -0.4088  0.0819
 2230SOL    HW1 8131   7.347   3.591   3.175  1.2850  3.6287  0.9051
 2230SOL    HW2 8132   7.373   3.553   3.319  0.0251 -1.1601  0.0370
 2231SOL     OW 8133   3.916   5.456   4.169 -0.0240 -0.2628 -0.3780
 2231SOL    HW1 8134   3.907   5.547   4.195  0.9914 -0.5135  0.9963
 2231SOL    HW2 8135   4.006   5.448   4.138  0.6436 -1.2152  1.5867
 2232SOL     OW 8136   4.103   7.637  10.729  0.1093 -0.3306  0.0074
 2232SOL    HW1 8137   4.031   7.632  10.666 -0.2770 -0.7370  0.4711
 2232SOL    HW2 8138   4.129   7.546  10.741  1.9435 -0.0707 -1.5465
 2233SOL     OW 8139   0.061   5.682   5.416 -0.0174  0.1062  0.3862
 2233SOL    HW1 8140   0.099   5.764   5.446 -0.2831  0.0511  0.8829
 2233SOL    HW2 8141   0.057   5.690   5.321 -2.4892  1.7505  0.5550
 2234SOL     OW 8142   7.568   3.712   9.720  0.7778  0.6191  0.0660
 2234SOL    HW1 8143   7.638   3.681   9.663  0.3318 -1.6562  0.6153
 2234SOL    HW2 8144   7.490   3.714   9.665 -0.0245 -3.2181  0.7559
 2235SOL     OW 8145   0.845   2.077   0.782 -0.0156  0.4461  0.0794
 2235SOL    HW1 8146   0.859   2.171   0.781  0.7735  0.3418  0.6799
 2235SOL    HW2 8147   0.927   2.040   0.813  0.1602 -0.5422 -1.4282
 2236SOL     OW 8148   3.867   7.792   3.227 -0.3522 -0.1671 -0.4229
 2236SOL    HW1 8149   3.836   7.875   3.190 -0.0887  0.0376 -0.1959
 2236SOL    HW2 8150   3.962   7.794   3.213 -0.2723 -0.1686  0.0917
 2237SOL     OW 8151   4.861   5.559  11.544  0.3658  0.1782  0.0031
 2237SOL    HW1 8152   4.887   5.629  11.483 -0.1473  0.1545 -0.2472
 2237SOL    HW2 8153   4.903   5.583  11.627  2.4186 -0.6366 -0.7356
 2238SOL     OW 8154   0.100   6.157   7.065  0.2942  0.2860  0.2704
 2238SOL    HW1 8155   0.120   6.067   7.092  2.1238  0.9604  1.4107
 2238SOL    HW2 8156   0.096   6.205   7.148  3.2703  1.9250 -0.3885
 2239SOL     OW 8157   3.494   6.648   9.951 -0.2028  0.3456  0.0516
 2239SOL    HW1 8158   3.551   6.667   9.877 -0.8940 -0.3388 -0.6772
 2239SOL    HW2 8159   3.439   6.726   9.960  0.3888  0.7361  0.3334
 2240SOL     OW 8160   4.091   0.922   8.006  0.0686  0.1306  0.9039
 2240SOL    HW1 8161   4.062   0.878   8.086  1.3986  1.2031  2.0172
 2240SOL    HW2 8162   4.036   1.000   8.000 -0.6979 -0.4505  0.2139
 2241SOL     OW 8163   3.919   2.841   1.909  0.0550 -0.0410 -0.3182
 2241SOL    HW1 8164   3.857   2.894   1.859  0.1945  0.4701  0.0405
 2241SOL    HW2 8165   3.897   2.751   1.886 -1.0535  0.1127  0.0648
 2242SOL     OW 8166   5.259   1.724   7.956 -0.1074 -0.1630  0.0476
 2242SOL    HW1 8167   5.224   1.642   7.990 -0.3404 -0.9430 -1.9873
 2242SOL    HW2 8168   5.213   1.792   8.006 -0.3355 -1.2287  1.3410
 2243SOL     OW 8169   7.938   5.802   4.635  0.0778 -0.3704  0.1695
 2243SOL    HW1 8170   7.947   5.833   4.545  0.0124 -0.1656  0.2326
 2243SOL    HW2 8171   7.981   5.869   4.688 -1.1708  0.2720  0.4176
 2244SOL     OW 8172   1.871   1.630   8.425  0.0222  0.2883 -0.0555
 2244SOL    HW1 8173   1.895   1.712   8.466  2.2315  0.2932 -1.2304
 2244SOL    HW2 8174   1.944   1.571   8.443 -1.7402 -1.6504  1.2181
 2245SOL     OW 8175   6.970   1.432   1.200  0.7070  0.3060 -0.6875
 2245SOL    HW1 8176   6.977   1.369   1.128  0.3945  0.2935 -0.7103
 2245SOL    HW2 8177   6.918   1.503   1.163 -0.9290 -0.4670  0.0338
 2246SOL     OW 8178   5.456   4.217   3.778  0.0121 -0.0941 -0.1829
 2246SOL    HW1 8179   5.366   4.228   3.806  0.0025 -0.6782  0.0355
 2246SOL    HW2 8180   5.494   4.155   3.841 -0.0114 -1.4118 -1.3954
 2247SOL     OW 8181   6.112   4.561   1.311 -0.2518 -0.0146  0.1187
 2247SOL    HW1 8182   6.044   4.566   1.244  0.1894  0.6207 -0.2865
 2247SOL    HW2 8183   6.129   4.467   1.321  1.7605 -0.0830 -2.7989
 2248SOL     OW 8184   2.409   5.263   9.741 -0.7012 -0.3012 -0.3105
 2248SOL    HW1 8185   2.333   5.216   9.707 -0.6572 -0.5574 -0.0586
 2248SOL    HW2 8186   2.476   5.196   9.751 -0.4764 -0.0946 -0.4256
 2249SOL     OW 8187   1.667   4.792   9.017  0.1710  0.1528 -0.8503
 2249SOL    HW1 8188   1.622   4.730   8.959  0.4760 -0.5309 -0.3759
 2249SOL    HW2 8189   1.746   4.817   8.968  1.0793 -1.3911 -0.2606
 2250SOL     OW 8190   1.410   0.148   4.977 -0.8159  0.2387  1.0792
 2250SOL    HW1 8191   1.425   0.239   5.002 -0.8527  0.2295  1.1343
 2250SOL    HW2 8192   1.474   0.098   5.028  1.1840  0.4818 -1.0332
 2251SOL     OW 8193   3.316   1.363  11.150  0.6032  0.7052 -0.4472
 2251SOL    HW1 8194   3.237   1.309  11.146  0.9659 -0.0091  1.2153
 2251SOL    HW2 8195   3.303   1.419  11.227  1.7815  0.4417 -0.0394
 2252SOL     OW 8196   7.474   6.444   2.001 -0.3677  0.1725 -0.2895
 2252SOL    HW1 8197   7.417   6.368   2.014 -0.3775  0.4448  1.4402
 2252SOL    HW2 8198   7.553   6.408   1.960 -0.1036 -0.9055  1.0775
 2253SOL     OW 8199   7.030   6.090   2.391  0.2299 -0.3862 -0.1872
 2253SOL    HW1 8200   7.114   6.133   2.407 -0.7029  1.8046 -0.7278
 2253SOL    HW2 8201   7.026   6.020   2.456  1.9892  0.1606  0.5828
 2254SOL     OW 8202   5.910   1.517  12.274  0.3391  0.2061 -0.3117
 2254SOL    HW1 8203   5.840   1.549  12.331  0.0903  0.0926 -0.5485
 2254SOL    HW2 8204   5.945   1.595  12.232 -0.8219  0.1130 -1.5212
 2255SOL     OW 8205   6.740   1.301   3.534  0.2363 -1.0465  0.2006
 2255SOL    HW1 8206   6.757   1.355   3.611 -1.6973  2.0321 -1.3161
 2255SOL    HW2 8207   6.819   1.248   3.524  1.2287 -0.3577  3.2999
 2256SOL     OW 8208   1.306   3.067   1.264 -0.1885 -0.2072  0.3864
 2256SOL    HW1 8209   1.388   3.111   1.287 -0.8081  1.8280 -0.9948
 2256SOL    HW2 8210   1.322   2.975   1.283  1.5651  0.4365  2.4358
 2257SOL     OW 8211   4.935   0.604   9.113  0.7195  0.3433  0.7100
 2257SOL    HW1 8212   4.977   0.655   9.044 -0.1082  0.0003 -0.0701
 2257SOL    HW2 8213   4.996   0.609   9.187  1.3938  1.1247  0.1251
 2258SOL     OW 8214   0.662   6.048   8.148 -0.4015 -0.4894 -0.1056
 2258SOL    HW1 8215   0.677   6.104   8.224  1.3111 -0.1625 -0.6506
 2258SOL    HW2 8216   0.567   6.036   8.147 -0.4634 -0.8255  2.2910
 2259SOL     OW 8217   5.314   7.281   8.532  0.5073 -0.0524 -0.2748
 2259SOL    HW1 8218   5.271   7.320   8.455  1.0026  1.5074  0.2083
 2259SOL    HW2 8219   5.277   7.193   8.537  0.6652 -0.2993 -2.4562
 2260SOL     OW 8220   2.348   1.247   2.295  0.0870  0.5927 -0.6183
 2260SOL    HW1 8221   2.342   1.152   2.279 -1.9410  0.7942 -1.3548
 2260SOL    HW2 8222   2.277   1.284   2.243  0.9028  2.5573 -0.4151
 2261SOL     OW 8223   0.397   2.939   8.818 -0.0227  0.5176  0.5198
 2261SOL    HW1 8224   0.375   2.877   8.888  0.9760  0.5956  0.9184
 2261SOL    HW2 8225   0.443   3.010   8.862 -1.9592  2.0492  0.2062
 2262SOL     OW 8226   0.310   0.383  12.314 -0.3473 -0.6706  0.3253
 2262SOL    HW1 8227   0.244   0.427  12.367  1.5021  0.6847  1.6197
 2262SOL    HW2 8228   0.342   0.452  12.255 -1.5295 -1.8512 -1.8301
 2263SOL     OW 8229   1.336   3.556   5.477 -0.1081 -0.0444 -0.4207
 2263SOL    HW1 8230   1.283   3.492   5.524  0.8411 -0.2189  0.4448
 2263SOL    HW2 8231   1.411   3.507   5.445  1.1360  0.7789  1.0950
 2264SOL     OW 8232   5.239   4.036   1.312  0.0857 -0.1067 -0.1191
 2264SOL    HW1 8233   5.241   4.131   1.310  0.4960 -0.1071 -1.6506
 2264SOL    HW2 8234   5.310   4.010   1.252 -1.9190 -1.3149 -2.1194
 2265SOL     OW 8235   7.729   6.737  11.139 -0.0108 -0.2858 -0.0060
 2265SOL    HW1 8236   7.806   6.680  11.131  0.5676  0.6172 -1.1847
 2265SOL    HW2 8237   7.679   6.721  11.059  0.5914  1.4440 -0.7745
 2266SOL     OW 8238   1.300   3.397   2.145  0.0241 -0.0904 -0.1573
 2266SOL    HW1 8239   1.373   3.339   2.120  1.6278  1.5371  0.5055
 2266SOL    HW2 8240   1.322   3.426   2.233 -1.8090 -0.0570  0.3179
 2267SOL     OW 8241   7.556   4.793  12.048 -0.0929  0.0007  0.1981
 2267SOL    HW1 8242   7.547   4.736  11.971 -0.5668 -0.9109  0.9030
 2267SOL    HW2 8243   7.516   4.876  12.021  0.7209  0.0581 -0.8917
 2268SOL     OW 8244   3.638   1.935   8.150 -0.4042  0.3234 -0.4375
 2268SOL    HW1 8245   3.642   1.872   8.079  0.3859 -1.6948  1.2759
 2268SOL    HW2 8246   3.707   1.999   8.130  0.8695 -1.0808 -0.7369
 2269SOL     OW 8247   0.532   6.863   2.834  0.5274  0.0599  0.3900
 2269SOL    HW1 8248   0.582   6.805   2.776  0.8220 -0.7896  1.4739
 2269SOL    HW2 8249   0.539   6.823   2.920 -0.3822  1.0043  0.9220
 2270SOL     OW 8250   6.169   6.723   8.836 -0.0457 -0.5781 -0.0876
 2270SOL    HW1 8251   6.123   6.794   8.791 -0.2207  0.0215  0.9909
 2270SOL    HW2 8252   6.105   6.688   8.897  0.3617 -0.9842  0.1143
 2271SOL     OW 8253   1.945   5.442   8.033  0.6397 -0.1616  0.1394
 2271SOL    HW1 8254   1.991   5.365   8.066  1.8333  0.0872 -0.8459
 2271SOL    HW2 8255   1.854   5.416   8.029  1.2008 -2.0726 -1.5975
 2272SOL     OW 8256   5.261   5.445   2.400 -0.2450  0.0016  0.2532
 2272SOL    HW1 8257   5.239   5.521   2.453  2.4249 -0.9198  2.9760
 2272SOL    HW2 8258   5.319   5.479   2.331 -1.4004  0.7959 -0.3453
 2273SOL     OW 8259   1.578   6.099   0.005 -0.2005 -0.0559  0.2333
 2273SOL    HW1 8260   1.584   6.194   0.008  0.7140 -0.0423 -1.1422
 2273SOL    HW2 8261   1.668   6.069  -0.008 -0.6737 -0.9785 -1.2590
 2274SOL     OW 8262   3.273   3.127   7.585 -0.4397 -0.0877  0.2457
 2274SOL    HW1 8263   3.239   3.040   7.607  0.9166 -0.6090  0.3458
 2274SOL    HW2 8264   3.245   3.183   7.658  0.8520 -1.0093  1.4962
 2275SOL     OW 8265   4.892   7.833   1.216  0.4171 -0.1528 -0.0504
 2275SOL    HW1 8266   4.980   7.850   1.249  0.7773  1.9197 -1.8342
 2275SOL    HW2 8267   4.898   7.849   1.121 -1.9849  0.7462 -0.1317
 2276SOL     OW 8268   3.500   7.890   6.053  0.0475 -0.0531  0.2783
 2276SOL    HW1 8269   3.587   7.859   6.078 -0.0355 -0.2290  0.3519
 2276SOL    HW2 8270   3.478   7.956   6.119  0.5611  0.7553 -0.3389
 2277SOL     OW 8271   6.661   5.336  11.022  0.1755 -0.2229  0.3211
 2277SOL    HW1 8272   6.711   5.256  11.002 -0.5755 -0.5546 -0.2630
 2277SOL    HW2 8273   6.720   5.407  11.001  0.0256 -0.5910 -1.4670
 2278SOL     OW 8274   2.607   3.571   3.412 -0.2079 -0.1607  0.1014
 2278SOL    HW1 8275   2.600   3.519   3.493  2.3784  0.1419  0.6070
 2278SOL    HW2 8276   2.600   3.662   3.442 -1.4387 -0.0937 -0.3445
 2279SOL     OW 8277   6.581   1.705   1.692 -0.3642 -0.4222 -0.6095
 2279SOL    HW1 8278   6.592   1.797   1.666  0.3349 -1.0649 -2.8026
 2279SOL    HW2 8279   6.666   1.680   1.729 -0.1926 -0.4732 -1.0310
 2280SOL     OW 8280   0.908   5.904   0.270  0.2695 -0.4171  0.1464
 2280SOL    HW1 8281   0.830   5.910   0.324  1.2409 -1.3844  1.7142
 2280SOL    HW2 8282   0.952   5.824   0.299  1.8588  0.1111 -0.6768
 2281SOL     OW 8283   5.673   3.031   1.500  0.2868 -0.3574  0.1752
 2281SOL    HW1 8284   5.579   3.018   1.512  0.3780 -0.5849  0.7255
 2281SOL    HW2 8285   5.713   2.984   1.574  0.8871 -1.2664 -0.6967
 2282SOL     OW 8286   1.054   2.202   1.576 -0.4525 -0.4440  0.3611
 2282SOL    HW1 8287   1.061   2.162   1.490 -0.7417  0.3733 -0.0509
 2282SOL    HW2 8288   0.963   2.185   1.603  0.0510 -2.0526  1.2067
 2283SOL     OW 8289   7.907   1.395  10.112  0.8751  0.4451 -0.0787
 2283SOL    HW1 8290   7.829   1.350  10.145  1.3278  0.3439  0.8798
 2283SOL    HW2 8291   7.966   1.324  10.086  0.6113  0.5220 -0.9277
 2284SOL     OW 8292   5.786   7.700   3.029  0.3479  0.0796 -0.2552
 2284SOL    HW1 8293   5.712   7.683   2.971  0.9116 -2.8851 -0.2912
 2284SOL    HW2 8294   5.751   7.691   3.117  0.7435 -2.2228 -0.2760
 2285SOL     OW 8295   1.290   2.357   5.151  0.6569 -0.5683 -0.2489
 2285SOL    HW1 8296   1.306   2.280   5.205  0.0973 -0.9664 -0.6415
 2285SOL    HW2 8297   1.318   2.331   5.063  2.0837  0.2566 -0.0717
 2286SOL     OW 8298   1.268   6.937   7.149 -0.4425 -0.1274  0.1685
 2286SOL    HW1 8299   1.278   6.983   7.065 -0.6984  1.3371  0.9141
 2286SOL    HW2 8300   1.357   6.929   7.182 -0.1317 -2.2806 -1.0047
 2287SOL     OW 8301   6.186   4.371   6.252 -0.3633  0.9742 -0.4190
 2287SOL    HW1 8302   6.238   4.295   6.280 -1.3122  0.5606  0.2899
 2287SOL    HW2 8303   6.213   4.441   6.311 -0.8042  0.6826  0.1401
 2288SOL     OW 8304   3.745   1.150  10.980 -0.6751 -0.3038  0.4835
 2288SOL    HW1 8305   3.702   1.164  10.896  1.3884  1.6370 -0.3596
 2288SOL    HW2 8306   3.805   1.076  10.964  1.3851  1.4760 -0.5578
 2289SOL     OW 8307   1.230   1.244  10.973  0.4439  0.4305  0.5864
 2289SOL    HW1 8308   1.244   1.339  10.978  0.2145  0.5157 -0.1521
 2289SOL    HW2 8309   1.300   1.207  11.026  0.2555  1.0270  1.2686
 2290SOL     OW 8310   0.510   7.194   4.709  0.5798  0.2495 -0.5467
 2290SOL    HW1 8311   0.579   7.255   4.736  0.5788  0.3655 -0.8049
 2290SOL    HW2 8312   0.448   7.248   4.660 -0.6668  0.5422  1.2706
 2291SOL     OW 8313   0.509   1.824   2.671 -0.4737  0.1992 -1.2321
 2291SOL    HW1 8314   0.415   1.826   2.656 -0.6772  0.9389  0.0129
 2291SOL    HW2 8315   0.523   1.752   2.732 -0.3325  0.5570 -0.8366
 2292SOL     OW 8316   2.559   4.543   8.070 -0.3733  0.2350 -0.4263
 2292SOL    HW1 8317   2.504   4.612   8.033 -0.6611  0.0630 -0.3232
 2292SOL    HW2 8318   2.645   4.558   8.031 -1.0711 -1.0241 -2.6106
 2293SOL     OW 8319   7.672   5.848   5.394 -0.0834  0.7537 -0.1040
 2293SOL    HW1 8320   7.727   5.837   5.471 -0.4863 -0.0775  0.0741
 2293SOL    HW2 8321   7.721   5.806   5.323 -0.1939  0.5644 -0.0713
 2294SOL     OW 8322   2.417   0.006   7.366 -0.0473 -0.1230 -0.2411
 2294SOL    HW1 8323   2.343  -0.051   7.344  1.3401 -2.2424  0.2212
 2294SOL    HW2 8324   2.441   0.047   7.283  0.4473 -2.2378 -1.2413
 2295SOL     OW 8325   7.286   7.817  12.036  0.3087  0.0118  0.3309
 2295SOL    HW1 8326   7.294   7.724  12.054  0.9193  0.3162  1.7163
 2295SOL    HW2 8327   7.285   7.859  12.122 -3.1342  1.1005 -0.0501
 2296SOL     OW 8328   3.738   6.142   1.104 -0.4956 -0.1599 -0.0582
 2296SOL    HW1 8329   3.809   6.167   1.163 -0.2852 -0.3913 -0.2102
 2296SOL    HW2 8330   3.764   6.176   1.018 -1.0471  0.6239  0.0791
 2297SOL     OW 8331   0.961   7.531   4.067  0.6032  0.0935 -0.1060
 2297SOL    HW1 8332   1.012   7.611   4.079 -1.1275  1.8405 -3.0684
 2297SOL    HW2 8333   0.984   7.501   3.979 -1.8314 -0.1530 -0.7469
 2298SOL     OW 8334   2.209   0.694  12.200 -0.6241 -0.1944 -0.1138
 2298SOL    HW1 8335   2.212   0.670  12.108 -0.2896 -1.5155  0.2165
 2298SOL    HW2 8336   2.284   0.648  12.239 -1.0332 -0.0403  0.8911
 2299SOL     OW 8337   1.912   1.937  12.049  0.2036  0.7061 -0.0508
 2299SOL    HW1 8338   1.930   1.852  12.090  1.3225  1.0135  0.1445
 2299SOL    HW2 8339   1.883   1.992  12.122  1.9827  1.1912  0.3541
 2300SOL     OW 8340   7.035   3.943   4.242 -0.9696  1.1966  0.2874
 2300SOL    HW1 8341   7.089   3.885   4.188  0.1215  1.0001  1.5411
 2300SOL    HW2 8342   7.028   4.024   4.191  0.0350  1.0154 -0.1594
 2301SOL     OW 8343   5.672   3.883   9.926 -0.1686 -0.2390  0.0770
 2301SOL    HW1 8344   5.743   3.893   9.990  0.4889 -2.2995 -0.2857
 2301SOL    HW2 8345   5.716   3.881   9.842 -1.0485  2.7054 -0.5836
 2302SOL     OW 8346   6.879   1.577   7.254 -0.2476  0.0977 -0.7752
 2302SOL    HW1 8347   6.973   1.592   7.270 -0.1522 -2.0381  1.1453
 2302SOL    HW2 8348   6.838   1.662   7.270  1.4838  1.6474 -3.6707
 2303SOL     OW 8349   2.172   5.139  11.576  0.0258  0.0893 -0.8717
 2303SOL    HW1 8350   2.258   5.171  11.549  1.6261 -3.4707 -0.5933
 2303SOL    HW2 8351   2.123   5.128  11.494  0.8102 -0.3074 -1.2982
 2304SOL     OW 8352   4.869   2.900   8.401 -0.2953 -0.1673  0.1524
 2304SOL    HW1 8353   4.902   2.972   8.454 -1.6069 -0.2003  1.0740
 2304SOL    HW2 8354   4.830   2.942   8.324 -1.5723  0.2032  0.9609
 2305SOL     OW 8355   4.581   6.865   9.967  0.0140  0.3264 -0.4270
 2305SOL    HW1 8356   4.625   6.814  10.034 -0.3467 -0.2432 -0.6166
 2305SOL    HW2 8357   4.488   6.856   9.987 -0.0391  1.6989  0.1018
 2306SOL     OW 8358   6.430   4.744   4.130  0.4501 -0.1633 -0.0026
 2306SOL    HW1 8359   6.526   4.739   4.129  0.5046  0.6308  0.3451
 2306SOL    HW2 8360   6.410   4.785   4.214 -0.1117  1.2216 -0.7877
 2307SOL     OW 8361   1.949   7.855   2.650  0.4776  0.3084 -0.2109
 2307SOL    HW1 8362   2.026   7.815   2.689  1.0934  1.2057 -0.4664
 2307SOL    HW2 8363   1.898   7.781   2.616 -0.2762 -0.5547  2.5293
 2308SOL     OW 8364   7.094   6.300   0.181 -0.0822 -0.0026  0.0580
 2308SOL    HW1 8365   7.130   6.387   0.193 -0.9009  0.2919  0.4665
 2308SOL    HW2 8366   7.006   6.305   0.219 -0.3077 -0.8748 -0.3201
 2309SOL     OW 8367   1.727   0.954   0.853  0.2541 -0.0345  0.6700
 2309SOL    HW1 8368   1.662   0.984   0.789 -0.0147 -0.5377  0.7039
 2309SOL    HW2 8369   1.794   1.022   0.852  1.2807 -0.9847 -1.6457
 2310SOL     OW 8370   5.389   5.529  10.411  0.1643 -0.0524  0.3486
 2310SOL    HW1 8371   5.441   5.583  10.351  0.8056 -1.4730 -0.4367
 2310SOL    HW2 8372   5.354   5.459  10.356 -1.3255  0.0120  1.1800
 2311SOL     OW 8373   7.357   3.807  10.881  0.4607 -0.5863 -0.4931
 2311SOL    HW1 8374   7.368   3.879  10.943  0.1191 -2.1739  1.5255
 2311SOL    HW2 8375   7.302   3.843  10.811  0.5468  1.1680  0.3172
 2312SOL     OW 8376   2.989   1.014  11.295 -0.0452  0.0980 -0.1952
 2312SOL    HW1 8377   3.070   1.048  11.256 -0.0897 -0.3757 -0.7186
 2312SOL    HW2 8378   2.955   0.952  11.229 -0.1928 -0.6210  0.5390
 2313SOL     OW 8379   7.330   6.744   8.998 -0.3175  0.8509  0.4501
 2313SOL    HW1 8380   7.320   6.784   8.912 -0.2250  0.6707  0.3548
 2313SOL    HW2 8381   7.258   6.681   9.002 -0.0306  0.5106  0.3072
 2314SOL     OW 8382   3.398   6.028   0.721  0.3412 -0.4456  0.1547
 2314SOL    HW1 8383   3.304   6.039   0.705  0.4447  0.2748  0.0034
 2314SOL    HW2 8384   3.431   6.117   0.733  1.3362 -0.5270 -1.6872
 2315SOL     OW 8385   2.909   2.546   7.909  0.0448  0.2687  0.4193
 2315SOL    HW1 8386   2.856   2.527   7.832  0.6824  1.3641 -0.3234
 2315SOL    HW2 8387   2.986   2.490   7.900 -0.0036  0.2067  0.3948
 2316SOL     OW 8388   0.367   4.026   9.672  0.4462 -0.3263  0.2610
 2316SOL    HW1 8389   0.455   4.058   9.694 -0.0929  0.3653  1.4812
 2316SOL    HW2 8390   0.311   4.103   9.679 -0.4543 -1.0056  0.6923
 2317SOL     OW 8391   5.772   0.075   3.909 -1.0015 -0.0357 -1.2232
 2317SOL    HW1 8392   5.726   0.029   3.979  0.6261  2.1938  1.5526
 2317SOL    HW2 8393   5.720   0.153   3.893  0.6113  1.4945  0.5181
 2318SOL     OW 8394   4.826   4.643  10.592 -0.3239  0.7470 -0.4453
 2318SOL    HW1 8395   4.890   4.683  10.651 -1.0998 -0.1093  1.0493
 2318SOL    HW2 8396   4.806   4.559  10.633 -1.3545  0.3907 -1.6356
 2319SOL     OW 8397   1.710   1.220   8.948 -0.1236 -0.1031 -0.0889
 2319SOL    HW1 8398   1.739   1.180   8.866 -1.0267 -0.7469 -0.1064
 2319SOL    HW2 8399   1.622   1.252   8.930  0.6666  2.2528 -0.1792
 2320SOL     OW 8400   0.447   2.641  11.728 -0.5266 -0.6383 -0.1300
 2320SOL    HW1 8401   0.470   2.552  11.701  1.4900  0.0128 -0.7445
 2320SOL    HW2 8402   0.450   2.692  11.647 -0.0086  0.2836  0.4498
 2321SOL     OW 8403   6.129   2.048   8.124 -0.1039  0.4293  0.1314
 2321SOL    HW1 8404   6.041   2.012   8.139 -0.5813  1.2574 -0.5483
 2321SOL    HW2 8405   6.135   2.122   8.183 -0.0275  0.6241 -0.1181
 2322SOL     OW 8406   6.972   6.791   3.277 -0.1775 -0.1776  0.3574
 2322SOL    HW1 8407   7.040   6.858   3.287 -1.3823  1.1254 -0.0006
 2322SOL    HW2 8408   6.894   6.829   3.317 -0.7651 -1.6022  0.6331
 2323SOL     OW 8409   5.334   5.149   0.249  0.1954  0.1099 -0.3219
 2323SOL    HW1 8410   5.396   5.221   0.266  0.6954 -0.2456 -0.6080
 2323SOL    HW2 8411   5.249   5.192   0.241  0.6938  0.8586 -2.0145
 2324SOL     OW 8412   5.869   4.661  10.024  0.4063 -0.1682 -0.1465
 2324SOL    HW1 8413   5.894   4.751  10.002  2.2253 -0.3581  0.9394
 2324SOL    HW2 8414   5.830   4.627   9.943  2.5025  0.6557 -1.5853
 2325SOL     OW 8415   5.745   1.041   2.991 -0.4379  0.2056  0.0188
 2325SOL    HW1 8416   5.682   0.971   2.972 -2.0979  1.7513 -0.3953
 2325SOL    HW2 8417   5.743   1.096   2.913  2.5889 -0.4480 -0.6661
 2326SOL     OW 8418   6.973   6.421   1.697  0.1174  0.4797 -0.3652
 2326SOL    HW1 8419   6.987   6.454   1.786 -1.0538  0.7397 -0.2609
 2326SOL    HW2 8420   6.900   6.361   1.705 -0.2927  0.8463 -1.2269
 2327SOL     OW 8421   5.950   5.654   2.220 -0.3457  0.8109 -0.0043
 2327SOL    HW1 8422   5.879   5.592   2.240 -0.7283  0.7966 -1.3216
 2327SOL    HW2 8423   5.905   5.728   2.179  0.4124  0.7104 -1.0482
 2328SOL     OW 8424   0.615   3.623   8.590 -0.4430  0.2355 -0.0520
 2328SOL    HW1 8425   0.589   3.595   8.502  0.1264  0.4689 -0.2923
 2328SOL    HW2 8426   0.671   3.699   8.576 -1.4941  1.1577  0.5779
 2329SOL     OW 8427   0.364   7.906   1.744 -0.0280  0.2031  0.1700
 2329SOL    HW1 8428   0.339   7.851   1.818 -0.1280  1.8220  1.3838
 2329SOL    HW2 8429   0.434   7.856   1.700 -0.6804 -1.2475  0.7190
 2330SOL     OW 8430   5.252   7.228   2.113 -0.0193 -0.0744  0.2924
 2330SOL    HW1 8431   5.247   7.261   2.023  1.7997  0.3379  0.2922
 2330SOL    HW2 8432   5.180   7.271   2.158  0.4741  1.6121 -0.4336
 2331SOL     OW 8433   2.230   2.461   6.712 -0.2471  0.4187  0.4878
 2331SOL    HW1 8434   2.300   2.457   6.776 -1.1438 -0.5585  1.4503
 2331SOL    HW2 8435   2.205   2.369   6.697 -0.3351  0.6460 -0.9547
 2332SOL     OW 8436   3.278   1.230   6.340  0.3414 -0.6435  0.2095
 2332SOL    HW1 8437   3.329   1.204   6.417  2.1394 -0.6382 -0.9008
 2332SOL    HW2 8438   3.236   1.312   6.365  1.7099 -0.1143  0.8835
 2333SOL     OW 8439   7.843   4.628   8.296 -0.0820  0.3149  0.0779
 2333SOL    HW1 8440   7.766   4.571   8.290  0.6226 -0.5153 -1.6103
 2333SOL    HW2 8441   7.828   4.694   8.228  0.4804  0.3935  0.0297
 2334SOL     OW 8442   1.640   5.137   7.877 -1.0294  0.0573 -0.0629
 2334SOL    HW1 8443   1.669   5.193   7.949  1.8414 -1.0623 -0.2379
 2334SOL    HW2 8444   1.593   5.196   7.818  0.0425  1.8323  0.7889
 2335SOL     OW 8445   3.827   6.820  10.286  0.6932 -0.1507  0.1578
 2335SOL    HW1 8446   3.766   6.852  10.352  0.0168 -0.7102 -0.1802
 2335SOL    HW2 8447   3.773   6.769  10.226  1.4011 -0.1693 -0.4814
 2336SOL     OW 8448   1.648   4.551   3.041  0.4474  0.0690 -0.0134
 2336SOL    HW1 8449   1.678   4.598   3.119 -1.9133  1.0807  0.3579
 2336SOL    HW2 8450   1.657   4.614   2.970 -0.2318  0.1993  0.0081
 2337SOL     OW 8451   1.715   6.288   4.398  0.6501  0.4039 -0.4323
 2337SOL    HW1 8452   1.766   6.207   4.399 -1.6844 -1.2096  2.5261
 2337SOL    HW2 8453   1.625   6.259   4.382 -0.3518  2.2910  1.3695
 2338SOL     OW 8454   0.045   1.821   3.100 -0.5167 -0.3021 -0.0187
 2338SOL    HW1 8455  -0.031   1.783   3.144 -1.5146 -0.0561 -1.4620
 2338SOL    HW2 8456   0.102   1.851   3.171 -1.6324 -0.7523  1.0946
 2339SOL     OW 8457   0.408   7.132   0.638  0.2912  0.2765  0.3114
 2339SOL    HW1 8458   0.433   7.065   0.575  1.3254  0.9485 -0.0284
 2339SOL    HW2 8459   0.347   7.089   0.697 -1.1674 -0.2318 -1.4709
 2340SOL     OW 8460   2.644   1.330   4.293  0.0799 -0.3363 -0.0279
 2340SOL    HW1 8461   2.693   1.269   4.349  1.0312  1.3991  1.1073
 2340SOL    HW2 8462   2.689   1.326   4.208  0.1515 -1.1656  0.0409
 2341SOL     OW 8463   1.061   2.505   2.035 -0.0975 -0.1219  0.2311
 2341SOL    HW1 8464   0.976   2.462   2.035  0.3924 -1.1795  1.5627
 2341SOL    HW2 8465   1.044   2.593   2.001 -1.8541 -0.0490  1.1871
 2342SOL     OW 8466   2.688   2.831   2.362 -0.5356 -0.1461  0.1917
 2342SOL    HW1 8467   2.698   2.897   2.294  0.1164 -1.6544 -1.2332
 2342SOL    HW2 8468   2.731   2.869   2.439 -0.9296  1.4159 -0.3270
 2343SOL     OW 8469   4.315   2.962  11.289 -0.3869  0.2410  0.1787
 2343SOL    HW1 8470   4.351   2.980  11.375 -1.4730  0.8094  0.5246
 2343SOL    HW2 8471   4.384   2.914  11.244  0.6496  0.9720  0.9466
 2344SOL     OW 8472   5.005   1.319  10.818 -0.0553 -0.3506 -0.1943
 2344SOL    HW1 8473   5.025   1.409  10.844 -3.0134 -0.0866  1.6636
 2344SOL    HW2 8474   5.048   1.265  10.883 -2.1551  0.0319  1.6170
 2345SOL     OW 8475   1.650   0.083  11.730 -0.2606  0.5854 -0.4134
 2345SOL    HW1 8476   1.675   0.010  11.673  0.1996  0.7368 -0.4071
 2345SOL    HW2 8477   1.714   0.151  11.712  0.7357  0.1632  1.2378
 2346SOL     OW 8478   2.499   1.117  10.625  0.3009  0.4078  1.0081
 2346SOL    HW1 8479   2.480   1.126  10.719  1.3580  0.9269  1.1872
 2346SOL    HW2 8480   2.503   1.022  10.611 -0.6692  0.3067  1.3029
 2347SOL     OW 8481   4.162   4.770  11.864 -0.4695  0.2667  0.3728
 2347SOL    HW1 8482   4.119   4.755  11.780 -0.8219  2.4065  0.1321
 2347SOL    HW2 8483   4.238   4.824  11.843  0.0986 -0.1272  1.3112
 2348SOL     OW 8484   4.185   4.941   0.108 -0.0004  0.2569  0.0891
 2348SOL    HW1 8485   4.270   4.919   0.068 -0.7904 -0.7980 -1.0749
 2348SOL    HW2 8486   4.193   5.034   0.131  1.7197  0.0000  0.6841
 2349SOL     OW 8487   0.580   0.284   5.876 -0.1252  0.3876  0.5225
 2349SOL    HW1 8488   0.524   0.315   5.805 -0.5925 -1.9270 -0.1870
 2349SOL    HW2 8489   0.661   0.336   5.867  0.0501 -0.2043 -2.0691
 2350SOL     OW 8490   3.987   3.231  11.205 -0.6739 -0.0830  0.1489
 2350SOL    HW1 8491   3.944   3.269  11.281 -0.5877 -1.7175  1.0587
 2350SOL    HW2 8492   3.917   3.224  11.140 -0.8448  0.9196  0.2069
 2351SOL     OW 8493   1.671   2.498   8.567  0.0638  0.1356 -0.5926
 2351SOL    HW1 8494   1.750   2.550   8.576 -0.1144  0.3047  0.0164
 2351SOL    HW2 8495   1.600   2.558   8.590 -0.1302 -0.4397  0.3429
 2352SOL     OW 8496   0.864   6.619  10.935 -0.9794  0.1954 -0.2149
 2352SOL    HW1 8497   0.945   6.626  10.987 -1.8076 -1.3030  1.3791
 2352SOL    HW2 8498   0.799   6.665  10.988 -2.0642 -2.1878  0.6517
 2353SOL     OW 8499   7.649   5.640   8.855  0.4152  0.6617 -0.4310
 2353SOL    HW1 8500   7.614   5.584   8.924  1.1495  0.1613 -0.4445
 2353SOL    HW2 8501   7.744   5.631   8.864  0.5185  0.5917 -1.5017
 2354SOL     OW 8502   6.647   6.213   3.122 -0.5717  0.0883 -0.1368
 2354SOL    HW1 8503   6.597   6.265   3.185 -1.5305  0.1417 -0.9181
 2354SOL    HW2 8504   6.681   6.140   3.173 -2.8195 -0.8543  0.1279
 2355SOL     OW 8505   6.951   0.218   1.879 -0.1790  0.0984  0.2805
 2355SOL    HW1 8506   6.887   0.162   1.834  1.2276 -0.7012 -0.8187
 2355SOL    HW2 8507   7.020   0.157   1.908  1.3205  1.1964 -0.8083
 2356SOL     OW 8508   0.716   7.537   9.641 -0.4451  0.5631  0.2239
 2356SOL    HW1 8509   0.704   7.446   9.615  1.0482  0.9185 -1.9934
 2356SOL    HW2 8510   0.711   7.536   9.737  1.3923 -2.1604  0.3950
 2357SOL     OW 8511   3.566   1.484   3.202 -0.1932 -0.2076 -0.1588
 2357SOL    HW1 8512   3.593   1.571   3.234 -1.2630  0.6240 -1.4040
 2357SOL    HW2 8513   3.648   1.437   3.190  0.3444 -0.0033  2.1546
 2358SOL     OW 8514   3.932   2.650   9.379  0.1640  0.2123  0.1664
 2358SOL    HW1 8515   4.002   2.657   9.314  1.0702  2.4927  1.2764
 2358SOL    HW2 8516   3.920   2.556   9.391  1.0291 -0.2603 -2.1398
 2359SOL     OW 8517   6.082   1.661   9.636  0.0182  0.2127 -0.0268
 2359SOL    HW1 8518   6.178   1.665   9.639 -0.0131  0.7598  0.3420
 2359SOL    HW2 8519   6.057   1.629   9.723 -0.0235 -2.7906 -1.0144
 2360SOL     OW 8520   0.040   4.251  12.205  0.0756  0.0253  0.4642
 2360SOL    HW1 8521  -0.021   4.322  12.186  1.1085  1.0753  0.8698
 2360SOL    HW2 8522   0.119   4.296  12.235  1.1065 -1.2670 -0.2073
 2361SOL     OW 8523   1.907   7.510  10.497 -0.2815 -0.1225  0.1298
 2361SOL    HW1 8524   1.835   7.561  10.459  0.8735  2.6200  1.3042
 2361SOL    HW2 8525   1.866   7.430  10.529 -3.0044  1.6792  1.5003
 2362SOL     OW 8526   0.776   5.982   5.453  0.6086  0.3755  0.0206
 2362SOL    HW1 8527   0.703   6.016   5.505  0.0194 -0.2062 -0.4089
 2362SOL    HW2 8528   0.737   5.914   5.398  1.7359 -0.9959  0.8339
 2363SOL     OW 8529   0.387   7.798   4.521  0.2018  0.3603  0.0346
 2363SOL    HW1 8530   0.292   7.790   4.512 -0.0247  1.8960  0.7268
 2363SOL    HW2 8531   0.413   7.719   4.567 -0.2363 -1.7290 -3.0200
 2364SOL     OW 8532   4.444   4.600   8.861 -0.1596  0.4251  0.4907
 2364SOL    HW1 8533   4.441   4.504   8.864 -0.6468  0.4716  2.5428
 2364SOL    HW2 8534   4.352   4.626   8.851 -0.2537  0.6998  1.9429
 2365SOL     OW 8535   1.267   2.869   5.114  0.4170  0.6150 -0.1259
 2365SOL    HW1 8536   1.290   2.881   5.022 -2.3853  1.3180 -0.8039
 2365SOL    HW2 8537   1.241   2.778   5.121  0.6334  0.5606 -0.0123
 2366SOL     OW 8538   3.675   2.293   3.295 -0.4685 -0.6318  0.1462
 2366SOL    HW1 8539   3.670   2.378   3.250  1.0556 -0.5150  0.1568
 2366SOL    HW2 8540   3.626   2.306   3.376 -0.5500  0.1343 -0.0184
 2367SOL     OW 8541   0.718   5.123   8.414  0.9658 -0.3630  0.1810
 2367SOL    HW1 8542   0.675   5.053   8.463  1.0181 -0.9450 -0.5864
 2367SOL    HW2 8543   0.810   5.116   8.437  0.6125  1.6282  2.7581
 2368SOL     OW 8544   0.390   7.580   6.253 -0.0898 -0.5110 -0.0645
 2368SOL    HW1 8545   0.315   7.636   6.273  0.8324  0.0680  2.0675
 2368SOL    HW2 8546   0.433   7.623   6.179 -0.8772  0.1279 -0.1612
 2369SOL     OW 8547   1.645   6.402   4.786 -0.0059  0.0580  0.1175
 2369SOL    HW1 8548   1.730   6.370   4.755  0.2905 -0.6255  1.5251
 2369SOL    HW2 8549   1.582   6.339   4.750  0.2316 -0.2044  0.1528
 2370SOL     OW 8550   6.227   7.881   5.291  0.2136 -0.2812  0.1194
 2370SOL    HW1 8551   6.193   7.929   5.366  1.2372 -0.1943  0.5368
 2370SOL    HW2 8552   6.221   7.943   5.218 -0.0006 -0.0860  0.3037
 2371SOL     OW 8553   0.500   7.000  10.513 -0.1482 -0.7532 -0.1601
 2371SOL    HW1 8554   0.434   6.956  10.567 -1.0993  2.2123  1.2750
 2371SOL    HW2 8555   0.576   7.007  10.570 -0.9183  1.7582  0.6722
 2372SOL     OW 8556   6.073   5.900   0.433 -0.0374 -0.0891 -0.2646
 2372SOL    HW1 8557   6.015   5.959   0.386  0.2251  0.5635  0.2219
 2372SOL    HW2 8558   6.015   5.830   0.465 -0.7744  1.1224  1.1585
 2373SOL     OW 8559   5.305   4.839  10.372  0.1934  0.1399  0.1268
 2373SOL    HW1 8560   5.221   4.807  10.339  0.7000  0.5504 -1.6700
 2373SOL    HW2 8561   5.288   4.929  10.399 -0.2953 -0.2927  1.3429
 2374SOL     OW 8562   0.575   4.492   0.926 -0.2807  0.1096 -0.1552
 2374SOL    HW1 8563   0.594   4.486   1.020  1.7021  0.9651 -0.4339
 2374SOL    HW2 8564   0.622   4.418   0.887 -0.0908  0.4509 -0.5841
 2375SOL     OW 8565   4.509   6.335   1.401 -0.1377  0.4363  0.2218
 2375SOL    HW1 8566   4.592   6.300   1.433 -0.5452 -2.0842 -1.1712
 2375SOL    HW2 8567   4.466   6.371   1.478  0.2316 -2.5765  1.9690
 2376SOL     OW 8568   2.731   3.367   7.852 -0.0804 -0.4036 -0.1120
 2376SOL    HW1 8569   2.809   3.379   7.799 -0.0603 -3.9389 -1.1858
 2376SOL    HW2 8570   2.765   3.352   7.941  0.2971 -0.0396 -0.1913
 2377SOL     OW 8571   2.574   0.105   7.133 -0.0167  0.1389  0.0150
 2377SOL    HW1 8572   2.668   0.124   7.138 -0.3484  1.6707  1.1401
 2377SOL    HW2 8573   2.540   0.169   7.070 -0.6094  0.9929  1.1756
 2378SOL     OW 8574   4.396   7.075   6.081 -0.0864  0.1136  0.6167
 2378SOL    HW1 8575   4.310   7.056   6.044 -0.8078 -1.0813  2.7524
 2378SOL    HW2 8576   4.398   7.171   6.088 -0.2286  0.3326 -1.6467
 2379SOL     OW 8577   6.804   0.899   1.070 -0.3456 -0.2391  0.6323
 2379SOL    HW1 8578   6.828   0.822   1.019 -0.5776  0.0095  0.1431
 2379SOL    HW2 8579   6.774   0.963   1.005 -2.9590 -0.7411  1.2387
 2380SOL     OW 8580   7.720   5.594  11.912 -0.0653 -0.0349  0.5695
 2380SOL    HW1 8581   7.726   5.604  12.007  0.3197 -0.8401  0.6406
 2380SOL    HW2 8582   7.703   5.501  11.898  0.7360 -0.0858 -0.1810
 2381SOL     OW 8583   0.751   7.548   0.252  0.4990 -0.1341  0.0034
 2381SOL    HW1 8584   0.753   7.556   0.347  1.3787  0.5821 -0.0602
 2381SOL    HW2 8585   0.829   7.498   0.230  0.7752  0.4530 -0.3902
 2382SOL     OW 8586   6.457   2.192   4.389 -0.5967 -0.5284 -0.4409
 2382SOL    HW1 8587   6.416   2.168   4.472 -1.8372  1.1029 -0.5077
 2382SOL    HW2 8588   6.391   2.248   4.346  2.0854  3.4301  0.0317
 2383SOL     OW 8589   5.245   3.039   4.072  0.4728  0.0653  0.3418
 2383SOL    HW1 8590   5.178   2.994   4.021  1.4585 -1.4028  0.2715
 2383SOL    HW2 8591   5.294   2.969   4.115  0.2446  1.2040  2.6268
 2384SOL     OW 8592   2.047   6.186   8.125 -0.2823 -0.4603  0.0328
 2384SOL    HW1 8593   1.965   6.200   8.172 -1.5862 -1.6505 -1.7717
 2384SOL    HW2 8594   2.067   6.093   8.139  2.0014  0.2447  2.2390
 2385SOL     OW 8595   3.790   6.154   6.714  0.1525  0.0375 -0.2964
 2385SOL    HW1 8596   3.863   6.099   6.686 -0.9698 -2.9345  2.1213
 2385SOL    HW2 8597   3.724   6.144   6.646 -0.0907 -1.8640  0.1619
 2386SOL     OW 8598   2.407   2.761  12.104 -0.2813  0.0492  0.0239
 2386SOL    HW1 8599   2.413   2.666  12.104 -1.0571 -0.0285  1.4126
 2386SOL    HW2 8600   2.492   2.791  12.137 -0.5090 -0.2381  0.9055
 2387SOL     OW 8601   2.751   2.823   5.586 -0.3240  0.1207 -0.0100
 2387SOL    HW1 8602   2.676   2.772   5.618  0.0673 -0.6200 -0.2576
 2387SOL    HW2 8603   2.826   2.788   5.634  0.1038 -0.2629 -0.9481
 2388SOL     OW 8604   5.386   5.053  11.243 -0.2994 -0.2164  0.0120
 2388SOL    HW1 8605   5.302   5.078  11.283 -0.0433 -0.8429  0.9560
 2388SOL    HW2 8606   5.381   5.090  11.155 -1.3500  0.2151  0.2281
 2389SOL     OW 8607   2.436   4.245  12.039  0.5480 -0.4353  0.1710
 2389SOL    HW1 8608   2.356   4.215  11.995 -0.8222  1.4529  1.2421
 2389SOL    HW2 8609   2.500   4.255  11.968  0.0575 -2.4743 -0.6506
 2390SOL     OW 8610   1.644   2.449   8.296 -0.1892 -0.3636  0.2528
 2390SOL    HW1 8611   1.702   2.418   8.365  1.3497  0.4949 -0.5993
 2390SOL    HW2 8612   1.567   2.483   8.342 -1.0507 -3.4676  1.2958
 2391SOL     OW 8613   0.350   7.384   8.712 -0.4458  0.1853  0.3720
 2391SOL    HW1 8614   0.361   7.336   8.794  1.3644 -0.3968 -0.1765
 2391SOL    HW2 8615   0.332   7.474   8.739 -1.3614 -0.2810  1.3998
 2392SOL     OW 8616   7.306   0.545   6.282 -0.5244 -0.6302  0.5089
 2392SOL    HW1 8617   7.236   0.481   6.271 -2.1167  1.3456 -1.7601
 2392SOL    HW2 8618   7.346   0.552   6.196 -1.2916  2.3265  0.2806
 2393SOL     OW 8619   6.747   7.485   6.882 -0.5657 -0.2859  0.1322
 2393SOL    HW1 8620   6.819   7.543   6.858  0.4592 -1.4864  0.2383
 2393SOL    HW2 8621   6.721   7.513   6.970 -1.6217  1.4746 -0.6866
 2394SOL     OW 8622   1.668   6.217   3.596  0.3855  0.8398  0.0555
 2394SOL    HW1 8623   1.699   6.229   3.506 -1.9411 -1.9193 -1.2626
 2394SOL    HW2 8624   1.573   6.227   3.591 -0.2304 -2.7386  1.3806
 2395SOL     OW 8625   6.316   3.163   3.538 -0.0074  0.0399  0.0084
 2395SOL    HW1 8626   6.354   3.148   3.624 -1.0099 -0.1174  0.4408
 2395SOL    HW2 8627   6.379   3.126   3.477  1.3391  1.3114  0.5731
 2396SOL     OW 8628   6.923   1.167   0.725 -0.0940  0.2420 -0.2040
 2396SOL    HW1 8629   6.905   1.171   0.819  0.3434 -4.1206  0.2428
 2396SOL    HW2 8630   7.018   1.176   0.719 -0.2327  1.8830 -0.4498
 2397SOL     OW 8631   4.646   1.131   3.025  0.6183 -0.4408 -0.1828
 2397SOL    HW1 8632   4.730   1.126   3.072  0.3612 -0.5332  0.2763
 2397SOL    HW2 8633   4.590   1.182   3.083  0.9353  1.3289 -1.3664
 2398SOL     OW 8634   7.038   5.011  10.479 -0.5578  0.6094 -0.4354
 2398SOL    HW1 8635   7.119   5.037  10.525 -0.1041 -1.1485 -0.1853
 2398SOL    HW2 8636   6.993   4.954  10.540  0.0649 -1.8077 -2.1010
 2399SOL     OW 8637   7.337   7.057   9.807 -0.0387 -0.5408 -0.3350
 2399SOL    HW1 8638   7.371   7.140   9.841  1.7184 -0.8137 -1.2993
 2399SOL    HW2 8639   7.264   7.082   9.751 -0.0824  0.2742  0.0655
 2400SOL     OW 8640   3.663   2.941   1.456  0.0405  0.0424 -0.1800
 2400SOL    HW1 8641   3.739   2.923   1.400 -0.6776  2.3095 -2.0617
 2400SOL    HW2 8642   3.600   2.982   1.398 -2.9038 -2.1780  1.2162
 2401SOL     OW 8643   5.199   7.042   8.522 -0.3399  0.1049  0.5735
 2401SOL    HW1 8644   5.106   7.057   8.539 -0.6530  0.0766 -0.9386
 2401SOL    HW2 8645   5.201   6.989   8.442  0.9870  0.9284  0.0169
 2402SOL     OW 8646   1.685   3.927   1.338  0.3153 -0.1787 -0.2577
 2402SOL    HW1 8647   1.655   4.016   1.359 -0.7750 -0.9917  2.0268
 2402SOL    HW2 8648   1.612   3.888   1.292  0.9036  0.1562 -1.5147
 2403SOL     OW 8649   7.252   7.385   5.605 -0.2435  0.3409  0.0824
 2403SOL    HW1 8650   7.168   7.391   5.560 -0.6848 -0.4410  0.7702
 2403SOL    HW2 8651   7.298   7.315   5.561 -0.6642 -0.4056  0.8019
 2404SOL     OW 8652   6.942   6.208   4.093 -0.4241  0.1456  0.0588
 2404SOL    HW1 8653   6.962   6.266   4.020  0.6771  1.4369  1.3246
 2404SOL    HW2 8654   7.028   6.176   4.122 -0.8055 -0.0485  1.0163
 2405SOL     OW 8655   1.087   2.322   5.374 -0.2107 -0.1511 -0.0751
 2405SOL    HW1 8656   1.127   2.356   5.294 -0.7263 -0.0880 -0.3095
 2405SOL    HW2 8657   1.148   2.347   5.443  0.4436 -0.5459 -0.4885
 2406SOL     OW 8658   2.152   7.382  11.711 -0.2347 -0.8069  0.1864
 2406SOL    HW1 8659   2.068   7.346  11.740  0.7795 -2.3287  1.3832
 2406SOL    HW2 8660   2.158   7.357  11.619 -1.3559 -0.1283 -0.0877
 2407SOL     OW 8661   5.043   7.838   5.478 -0.4599 -0.2649 -0.1527
 2407SOL    HW1 8662   5.088   7.895   5.539 -2.1592  3.4728 -2.0870
 2407SOL    HW2 8663   5.111   7.808   5.418  0.1860  1.6422 -0.4255
 2408SOL     OW 8664   3.874   2.899   3.325 -0.1627 -0.2791 -0.0816
 2408SOL    HW1 8665   3.924   2.975   3.296 -0.6503  0.2466  0.4425
 2408SOL    HW2 8666   3.794   2.900   3.272  0.8630 -1.7816 -1.7508
 2409SOL     OW 8667   0.188   1.037   8.429  0.0076 -0.0027  0.1762
 2409SOL    HW1 8668   0.196   0.995   8.514 -0.2640 -0.4524 -0.0210
 2409SOL    HW2 8669   0.161   1.127   8.449  1.2080  0.2827  0.6337
 2410SOL     OW 8670   6.292   0.155   4.443 -0.7551  0.1111 -0.4476
 2410SOL    HW1 8671   6.282   0.233   4.388  0.7984  0.2302 -0.6055
 2410SOL    HW2 8672   6.328   0.189   4.526  0.1757 -0.4393 -0.6094
 2411SOL     OW 8673   7.163   0.154  10.849 -0.1735 -0.1747 -0.1185
 2411SOL    HW1 8674   7.100   0.088  10.878 -1.2673  0.8401 -0.1435
 2411SOL    HW2 8675   7.124   0.191  10.770  1.0883 -0.4327 -0.8854
 2412SOL     OW 8676   1.357   2.307  11.174 -0.2388  0.0584 -0.5764
 2412SOL    HW1 8677   1.274   2.344  11.143 -0.0658  0.5454 -0.4716
 2412SOL    HW2 8678   1.423   2.346  11.116  0.0608  0.7885  0.2287
 2413SOL     OW 8679   6.094   7.064   1.513 -0.3962  0.1061 -0.1695
 2413SOL    HW1 8680   6.112   7.134   1.451 -0.0916 -0.9939 -1.3607
 2413SOL    HW2 8681   6.160   7.076   1.581 -0.4940  1.0973 -0.2291
 2414SOL     OW 8682   6.916   5.027  12.248 -0.3593 -0.3062  0.3903
 2414SOL    HW1 8683   6.940   5.117  12.225 -1.3946 -0.4180 -1.3209
 2414SOL    HW2 8684   6.831   5.035  12.292  0.1460 -0.3660  1.4066
 2415SOL     OW 8685   1.445   2.913   9.442 -0.3689  0.2038  0.3841
 2415SOL    HW1 8686   1.467   2.893   9.351 -1.0650  0.0206  0.2477
 2415SOL    HW2 8687   1.361   2.870   9.456 -0.5939  0.8031  0.9061
 2416SOL     OW 8688   6.951   4.572   9.950  0.0026  0.8352 -0.0923
 2416SOL    HW1 8689   7.009   4.646   9.966  2.0943 -0.6943 -0.1896
 2416SOL    HW2 8690   6.954   4.559   9.855 -1.4899  1.4670 -0.2492
 2417SOL     OW 8691   6.833   7.024   6.842 -0.0708 -0.6229 -0.6083
 2417SOL    HW1 8692   6.753   7.022   6.789 -0.4608  1.1911 -0.1783
 2417SOL    HW2 8693   6.904   7.006   6.780 -0.4924  1.7159 -1.8794
 2418SOL     OW 8694   0.555   5.899  12.238  0.3324  0.5589  0.3519
 2418SOL    HW1 8695   0.641   5.858  12.235  0.3025  0.4669  0.7519
 2418SOL    HW2 8696   0.541   5.931  12.149  0.6164  0.2406  0.1917
 2419SOL     OW 8697   5.562   1.892  10.552 -0.4682  0.1274 -0.4043
 2419SOL    HW1 8698   5.585   1.803  10.524 -1.7866 -0.2473 -0.3404
 2419SOL    HW2 8699   5.642   1.925  10.593  0.2785 -0.7438 -1.1017
 2420SOL     OW 8700   2.038   5.309   4.822 -0.7532  0.1135  0.1028
 2420SOL    HW1 8701   2.091   5.341   4.749 -0.3042 -2.5743 -0.8659
 2420SOL    HW2 8702   2.097   5.312   4.898 -0.6002  1.0717 -0.0422
 2421SOL     OW 8703   3.883   5.130   6.742 -0.3196  0.4304 -0.1855
 2421SOL    HW1 8704   3.885   5.151   6.835 -0.5935  1.6114 -0.4204
 2421SOL    HW2 8705   3.790   5.120   6.721 -0.2476 -0.0377 -0.2935
 2422SOL     OW 8706   7.604   2.326   6.955 -0.0724  0.3030 -0.3642
 2422SOL    HW1 8707   7.670   2.270   6.914  0.1526  0.1802  0.1522
 2422SOL    HW2 8708   7.620   2.316   7.049 -0.1877  1.0475 -0.2604
 2423SOL     OW 8709   1.384   4.251   5.534  0.5131 -0.1393  0.0336
 2423SOL    HW1 8710   1.305   4.201   5.514  0.4383  0.4347 -1.2634
 2423SOL    HW2 8711   1.352   4.328   5.581  0.3630 -0.1807 -0.0004
 2424SOL     OW 8712   6.603   1.485   4.964  0.3232 -0.0446  0.0681
 2424SOL    HW1 8713   6.610   1.495   5.059  0.7740  1.0250 -0.0624
 2424SOL    HW2 8714   6.694   1.490   4.933  0.1499 -0.0545 -0.4479
 2425SOL     OW 8715   7.266   3.033   0.936 -0.0292 -0.0120 -0.1747
 2425SOL    HW1 8716   7.296   3.009   1.024 -2.7760  1.4142  1.3106
 2425SOL    HW2 8717   7.295   3.124   0.926 -0.3507  0.0664 -0.4000
 2426SOL     OW 8718   1.029   4.936  10.024  0.0440 -0.4340 -0.1123
 2426SOL    HW1 8719   0.994   4.887   9.950 -0.2893 -1.0639  0.4566
 2426SOL    HW2 8720   1.015   5.028  10.000 -2.2708 -0.6415  0.2076
 2427SOL     OW 8721   5.827   4.169   8.387  0.3426 -0.4590 -0.2479
 2427SOL    HW1 8722   5.909   4.187   8.434  0.3229 -0.0153 -0.3768
 2427SOL    HW2 8723   5.784   4.101   8.439  1.3675 -1.6010 -0.8533
 2428SOL     OW 8724   3.049   0.321   9.863  0.0923  0.1871 -0.1998
 2428SOL    HW1 8725   2.958   0.341   9.885  0.1767  0.5552 -0.1807
 2428SOL    HW2 8726   3.090   0.406   9.849  0.2235 -0.0012 -1.0682
 2429SOL     OW 8727   1.136   6.518   6.125 -0.2532  0.1782  0.1445
 2429SOL    HW1 8728   1.084   6.583   6.171  0.0633  0.0032  0.7563
 2429SOL    HW2 8729   1.129   6.439   6.178 -1.7649 -0.7226 -1.3136
 2430SOL     OW 8730   0.180   5.020   7.189 -0.4269  0.1986 -0.3371
 2430SOL    HW1 8731   0.181   4.987   7.099 -1.3754 -0.0784 -0.2538
 2430SOL    HW2 8732   0.135   4.952   7.239 -2.8917  1.7750 -0.2392
 2431SOL     OW 8733   7.236   2.037  11.152 -0.2845 -0.2800  0.5070
 2431SOL    HW1 8734   7.203   1.948  11.157  0.2651 -0.4596  1.1701
 2431SOL    HW2 8735   7.266   2.047  11.061 -0.5001 -0.7128  0.3880
 2432SOL     OW 8736   1.125   7.277   8.731 -0.0183  0.2161 -0.4853
 2432SOL    HW1 8737   1.052   7.229   8.771  0.5156  0.5253  0.9471
 2432SOL    HW2 8738   1.170   7.318   8.806  1.4575  0.2549 -1.3593
 2433SOL     OW 8739   5.874   5.453   5.913  0.2954  0.1172 -0.8045
 2433SOL    HW1 8740   5.871   5.527   5.974 -1.2005 -1.3605  1.0706
 2433SOL    HW2 8741   5.799   5.466   5.855 -0.3194 -0.2026 -0.0958
 2434SOL     OW 8742   0.656   7.941  10.767  0.3054 -0.4643 -0.5376
 2434SOL    HW1 8743   0.707   7.869  10.806 -0.0425 -0.6470 -0.4205
 2434SOL    HW2 8744   0.692   8.020  10.807  1.2970 -0.4993 -1.3240
 2435SOL     OW 8745   1.765   5.275   7.297  0.0225 -0.2659  0.1168
 2435SOL    HW1 8746   1.836   5.214   7.314  0.5169  0.0478 -0.7701
 2435SOL    HW2 8747   1.693   5.221   7.266  0.7297 -0.3381 -1.4720
 2436SOL     OW 8748   5.904   4.387   7.334 -0.0640  0.2845  0.1772
 2436SOL    HW1 8749   5.830   4.368   7.276 -0.8012  1.1473  0.8033
 2436SOL    HW2 8750   5.880   4.347   7.417 -0.4715  1.7115  0.7763
 2437SOL     OW 8751   1.353   1.686   1.475 -0.3804  0.2513 -0.0367
 2437SOL    HW1 8752   1.257   1.685   1.484 -0.3235  3.2558  2.9252
 2437SOL    HW2 8753   1.384   1.632   1.547  0.1603  0.0634 -0.4090
 2438SOL     OW 8754   0.071   7.760   7.502 -0.4792 -0.0791 -0.1366
 2438SOL    HW1 8755   0.017   7.681   7.502  0.4655 -0.7445 -0.2475
 2438SOL    HW2 8756   0.114   7.759   7.588 -0.9911  0.6942  0.1372
 2439SOL     OW 8757   2.406   0.349   1.252 -0.2068 -0.8649 -0.5203
 2439SOL    HW1 8758   2.315   0.380   1.257 -0.2725 -1.0254 -0.7090
 2439SOL    HW2 8759   2.399   0.254   1.254 -0.1180 -0.9097 -1.6806
 2440SOL     OW 8760   2.101   3.904   8.406  0.2666 -0.2613 -0.3751
 2440SOL    HW1 8761   2.078   3.996   8.397  0.7173 -0.2311 -1.2706
 2440SOL    HW2 8762   2.079   3.883   8.497  0.2439  0.7454 -0.1350
 2441SOL     OW 8763   5.946   2.406   6.203 -0.2586 -0.6117  0.3626
 2441SOL    HW1 8764   5.922   2.496   6.182  0.0650 -0.0969  2.0377
 2441SOL    HW2 8765   5.959   2.364   6.118 -1.0847  0.7251 -0.4624
 2442SOL     OW 8766   4.270   5.753   6.377  0.2607 -0.2752 -0.1266
 2442SOL    HW1 8767   4.304   5.728   6.463  0.7215  0.6223 -0.0283
 2442SOL    HW2 8768   4.347   5.759   6.321 -0.0811 -1.2646 -0.7277
 2443SOL     OW 8769   1.052   6.304   5.323  0.1256  0.9334 -0.3020
 2443SOL    HW1 8770   1.128   6.311   5.382 -0.6870 -0.9298  1.0549
 2443SOL    HW2 8771   1.058   6.216   5.286 -1.8507  0.3740  0.5908
 2444SOL     OW 8772   6.779   7.904  11.397  0.2438 -0.0179  0.0130
 2444SOL    HW1 8773   6.699   7.873  11.440  0.8355  0.0638  1.1976
 2444SOL    HW2 8774   6.808   7.978  11.450  0.8694  0.2402 -0.6670
 2445SOL     OW 8775   4.169   2.771  10.738  0.1281 -0.2905  0.3708
 2445SOL    HW1 8776   4.225   2.767  10.660  0.7467 -1.9602  0.8649
 2445SOL    HW2 8777   4.094   2.825  10.711  0.4586 -0.6119 -1.2900
 2446SOL     OW 8778   2.244   4.690   7.347  0.2640 -0.5050 -0.1611
 2446SOL    HW1 8779   2.169   4.691   7.287 -1.1515  0.1819  1.5348
 2446SOL    HW2 8780   2.205   4.691   7.434  2.2696  0.4297  0.7950
 2447SOL     OW 8781   7.338   4.707   2.244  0.2750  0.3489  0.3205
 2447SOL    HW1 8782   7.382   4.622   2.242  0.9453  0.3900  4.7008
 2447SOL    HW2 8783   7.397   4.765   2.195  0.3894 -1.3764 -1.7256
 2448SOL     OW 8784   4.687   5.218   0.815  0.1287  0.6028 -0.4851
 2448SOL    HW1 8785   4.659   5.264   0.735  1.4824  1.8156 -0.2990
 2448SOL    HW2 8786   4.708   5.129   0.786  1.1785  1.1927 -1.6171
 2449SOL     OW 8787   4.345   2.994   1.164 -0.6026 -0.4791  0.0202
 2449SOL    HW1 8788   4.342   3.088   1.147 -1.5405 -0.5187 -0.0801
 2449SOL    HW2 8789   4.398   2.986   1.244 -0.3930  0.1143 -0.0532
 2450SOL     OW 8790   3.081   0.957   8.893 -0.3288 -0.4722 -0.2375
 2450SOL    HW1 8791   3.110   1.042   8.859 -2.5273  0.6149  0.3541
 2450SOL    HW2 8792   3.156   0.922   8.939  0.4256  1.5590  0.1889
 2451SOL     OW 8793   2.133   4.586   8.535  0.5984  0.7934 -0.2792
 2451SOL    HW1 8794   2.222   4.603   8.505  0.7425 -0.5964 -0.7389
 2451SOL    HW2 8795   2.079   4.650   8.489  1.2809  1.1763 -0.5575
 2452SOL     OW 8796   0.337   5.890   3.194 -0.3653 -0.8615 -0.6948
 2452SOL    HW1 8797   0.300   5.832   3.260  0.4556 -0.3965  0.1936
 2452SOL    HW2 8798   0.420   5.849   3.169  1.7759  1.3261  2.1581
 2453SOL     OW 8799   0.540   4.177   4.435  0.0814 -0.0320  0.1456
 2453SOL    HW1 8800   0.529   4.141   4.348  0.9257  0.2741 -0.1023
 2453SOL    HW2 8801   0.593   4.113   4.481  0.0517  0.0386  0.2791
 2454SOL     OW 8802   7.090   7.627  11.798  0.0710  0.0375  0.5358
 2454SOL    HW1 8803   7.049   7.590  11.876  0.7771  0.3187  1.0540
 2454SOL    HW2 8804   7.020   7.678  11.756  0.0226  0.9504  1.6863
 2455SOL     OW 8805   1.013   3.153  11.846 -0.8318 -0.4536  0.6290
 2455SOL    HW1 8806   1.011   3.197  11.761 -1.0309 -0.3088  0.7076
 2455SOL    HW2 8807   1.092   3.098  11.842 -0.0746  0.5888  0.8609
 2456SOL     OW 8808   7.694   0.189   0.112 -0.2891  0.0016 -0.5623
 2456SOL    HW1 8809   7.719   0.180   0.204  1.7614  1.6427 -0.8855
 2456SOL    HW2 8810   7.768   0.154   0.063 -0.3415  1.2396 -1.5769
 2457SOL     OW 8811   4.221   5.242   5.734 -0.2411  0.1850 -0.0266
 2457SOL    HW1 8812   4.146   5.201   5.776 -0.1032  0.8589  0.9044
 2457SOL    HW2 8813   4.280   5.169   5.714 -1.0953 -0.3349 -0.6942
 2458SOL     OW 8814   4.010   6.636   9.926  0.4189 -0.4892  0.1005
 2458SOL    HW1 8815   4.080   6.699   9.944  0.1799 -0.6972  1.8997
 2458SOL    HW2 8816   4.019   6.616   9.833  1.8232  0.5978 -0.0233
 2459SOL     OW 8817   1.385   1.736   6.494 -0.1193 -0.1759  0.1574
 2459SOL    HW1 8818   1.467   1.738   6.543 -0.1550 -1.5849  0.3045
 2459SOL    HW2 8819   1.392   1.810   6.433  1.8278 -1.0151 -0.7143
 2460SOL     OW 8820   5.936   1.621  10.302  0.3100  0.2598  0.1066
 2460SOL    HW1 8821   5.970   1.543  10.345  0.8782  0.1227 -0.5769
 2460SOL    HW2 8822   6.014   1.664  10.266 -0.2062  0.1245 -1.1970
 2461SOL     OW 8823   4.565   2.982   3.015 -0.5605 -0.8651  0.1966
 2461SOL    HW1 8824   4.621   2.972   2.938 -1.0640 -0.7762 -0.1888
 2461SOL    HW2 8825   4.476   2.974   2.981 -0.9720  2.2547  0.2068
 2462SOL     OW 8826   0.444   6.499   9.222  0.1575 -0.2255  0.0599
 2462SOL    HW1 8827   0.491   6.513   9.139  0.1356 -0.4969  0.0001
 2462SOL    HW2 8828   0.467   6.575   9.275 -1.6411  1.1467 -1.0284
 2463SOL     OW 8829   2.213   5.158  10.893 -0.0554 -0.1556 -0.1285
 2463SOL    HW1 8830   2.180   5.068  10.894 -0.6089  0.0004  2.5516
 2463SOL    HW2 8831   2.242   5.171  10.803 -1.2666 -2.5235 -0.9646
 2464SOL     OW 8832   6.278   2.292   2.115 -0.5273 -0.0638  0.4623
 2464SOL    HW1 8833   6.320   2.271   2.198 -0.6414 -1.3195  0.2293
 2464SOL    HW2 8834   6.206   2.229   2.108  1.5918 -2.4841 -2.1905
 2465SOL     OW 8835   0.991   0.463   3.281 -0.4253 -0.2795  0.0363
 2465SOL    HW1 8836   1.009   0.374   3.252 -0.1737  0.2511 -1.5425
 2465SOL    HW2 8837   1.076   0.496   3.312 -0.0523  0.0719 -1.3080
 2466SOL     OW 8838   3.440   3.071   9.274 -0.0412  0.0045  0.2989
 2466SOL    HW1 8839   3.495   3.122   9.215  0.8442 -1.5294 -0.2644
 2466SOL    HW2 8840   3.496   3.050   9.348  0.4187 -2.0768 -0.5535
 2467SOL     OW 8841   6.414   1.831  10.794 -0.5820  0.3569 -0.7204
 2467SOL    HW1 8842   6.478   1.809  10.726 -0.7386 -1.5114 -0.3317
 2467SOL    HW2 8843   6.424   1.762  10.860 -1.7209  1.0688  0.2584
 2468SOL     OW 8844   3.947   0.947   0.740  0.5103 -0.3689 -0.6342
 2468SOL    HW1 8845   4.013   1.007   0.775  0.4142 -1.2357  1.1225
 2468SOL    HW2 8846   3.876   1.004   0.711  0.6371  0.3966  0.5167
 2469SOL     OW 8847   7.626   0.097   0.964  0.6842 -0.4293  0.0046
 2469SOL    HW1 8848   7.698   0.101   0.903  0.4353 -0.1186 -0.2732
 2469SOL    HW2 8849   7.650   0.158   1.034  0.6471 -0.2533 -0.1358
 2470SOL     OW 8850   7.309   7.715   0.952 -0.6109 -0.3262  0.5149
 2470SOL    HW1 8851   7.391   7.760   0.932 -1.1806  0.4226 -0.1828
 2470SOL    HW2 8852   7.241   7.777   0.928 -1.3912 -0.5612  1.9780
 2471SOL     OW 8853   4.461   0.946   8.788  0.3914 -0.2664 -0.3227
 2471SOL    HW1 8854   4.435   0.871   8.841  1.1306 -0.6699 -0.5203
 2471SOL    HW2 8855   4.556   0.946   8.791  0.4609 -0.3663 -1.7403
 2472SOL     OW 8856   5.974   4.551   5.428  0.2724  0.0427  0.1388
 2472SOL    HW1 8857   6.007   4.635   5.459 -0.5804  0.1183  0.9080
 2472SOL    HW2 8858   6.041   4.488   5.455  2.3811  0.7180 -2.9815
 2473SOL     OW 8859   2.071   3.763   0.156  0.0483 -0.0171  0.2765
 2473SOL    HW1 8860   2.132   3.738   0.225  0.3238 -2.4027 -0.7256
 2473SOL    HW2 8861   1.992   3.791   0.203  1.5130  2.3029  1.5703
 2474SOL     OW 8862   6.405   2.845   8.761  0.4026  0.4316 -0.1898
 2474SOL    HW1 8863   6.431   2.765   8.808  1.1391 -0.0202 -1.3174
 2474SOL    HW2 8864   6.353   2.813   8.686  1.0576  0.9644 -0.8861
 2475SOL     OW 8865   2.238   5.627  11.972  0.1675 -0.4137  0.2042
 2475SOL    HW1 8866   2.295   5.552  11.955  1.2673  0.2273  0.9353
 2475SOL    HW2 8867   2.282   5.676  12.041 -1.2412  0.1568  0.7430
 2476SOL     OW 8868   3.258   4.209   1.156  0.0293 -0.0299 -0.2653
 2476SOL    HW1 8869   3.329   4.273   1.150 -1.3115  1.7397  1.1186
 2476SOL    HW2 8870   3.254   4.169   1.069  1.2951  1.4037 -1.0447
 2477SOL     OW 8871   2.481   0.333   8.034 -0.5558 -0.3765  0.3914
 2477SOL    HW1 8872   2.550   0.335   8.099  2.1866 -0.7098 -2.2894
 2477SOL    HW2 8873   2.485   0.418   7.991 -1.0685 -0.7831 -0.4949
 2478SOL     OW 8874   3.970   1.171   4.856 -0.1358 -0.6294 -0.2331
 2478SOL    HW1 8875   4.006   1.227   4.787  0.8006 -0.2648  0.5242
 2478SOL    HW2 8876   3.875   1.180   4.847 -0.0397  1.5030  0.1647
 2479SOL     OW 8877   7.929   4.309   3.628 -0.1057  0.4865 -0.5111
 2479SOL    HW1 8878   7.939   4.225   3.672  0.3861  0.4188 -0.7419
 2479SOL    HW2 8879   7.954   4.291   3.537  0.1615  0.9161 -0.5243
 2480SOL     OW 8880   6.833   3.368  12.334  0.2169 -0.2739  0.4729
 2480SOL    HW1 8881   6.766   3.308  12.301 -0.0414  0.4491 -0.3565
 2480SOL    HW2 8882   6.785   3.434  12.383  0.4352 -0.3610  0.8101
 2481SOL     OW 8883   6.147   5.051   6.070  0.2969 -0.4119  0.1718
 2481SOL    HW1 8884   6.168   5.016   5.983  1.2170  0.9240 -0.1774
 2481SOL    HW2 8885   6.078   5.115   6.055  0.2209 -0.4234  0.4624
 2482SOL     OW 8886   4.558   2.261   4.943  0.2331  0.5868 -0.0403
 2482SOL    HW1 8887   4.525   2.351   4.945  3.1005  1.7335  1.3702
 2482SOL    HW2 8888   4.531   2.224   5.027 -0.7847  0.1355 -0.5441
 2483SOL     OW 8889   2.492   5.323   0.154  0.0056 -0.3271 -0.0683
 2483SOL    HW1 8890   2.451   5.257   0.097 -1.4988 -1.3276  2.0423
 2483SOL    HW2 8891   2.423   5.348   0.215  0.9981  2.1755  0.1143
 2484SOL     OW 8892   2.729   6.486   7.359  0.3143 -0.5243  0.4441
 2484SOL    HW1 8893   2.637   6.476   7.382  0.2685 -0.3218  0.3480
 2484SOL    HW2 8894   2.731   6.481   7.264  0.3197  0.1170  0.4049
 2485SOL     OW 8895   6.950   6.255  12.181  0.1986 -0.4962  0.1821
 2485SOL    HW1 8896   6.996   6.192  12.236  0.1072 -1.1624 -0.4939
 2485SOL    HW2 8897   6.977   6.234  12.092 -0.1526  0.1586 -0.0886
 2486SOL     OW 8898   0.684   3.384   5.855 -0.4701  0.0866 -0.3073
 2486SOL    HW1 8899   0.729   3.385   5.940 -1.1496  0.6834  0.0496
 2486SOL    HW2 8900   0.755   3.373   5.791  0.4776  2.9285  0.0898
 2487SOL     OW 8901   6.757   2.227   1.389  0.0109  0.2299 -0.2952
 2487SOL    HW1 8902   6.816   2.284   1.339  1.1103 -0.2410  0.4387
 2487SOL    HW2 8903   6.680   2.218   1.332  1.1456 -0.1554 -1.8387
 2488SOL     OW 8904   0.592   4.930   8.551  0.3447  0.1814 -0.0320
 2488SOL    HW1 8905   0.648   4.854   8.564 -0.0640  0.1645  1.9748
 2488SOL    HW2 8906   0.516   4.896   8.504  0.7176 -0.3860 -0.2299
 2489SOL     OW 8907   4.723   0.763   5.812  0.1009 -0.1185  0.5042
 2489SOL    HW1 8908   4.641   0.803   5.842  0.3529 -0.4062  1.6194
 2489SOL    HW2 8909   4.722   0.675   5.848  0.5284 -0.4194 -0.1803
 2490SOL     OW 8910   4.745   2.274   6.542  0.1143 -0.1766  0.8181
 2490SOL    HW1 8911   4.773   2.294   6.632 -1.5751  1.0996  1.1040
 2490SOL    HW2 8912   4.693   2.350   6.516  0.1754 -0.7495 -1.0833
 2491SOL     OW 8913   3.406   3.670   4.978  0.0915  0.0886  0.6023
 2491SOL    HW1 8914   3.432   3.585   5.014 -1.0945 -0.9039 -0.7589
 2491SOL    HW2 8915   3.313   3.660   4.957  0.3021  1.1872 -1.0432
 2492SOL     OW 8916   0.841   2.936   0.156  0.1342  0.6078 -0.5176
 2492SOL    HW1 8917   0.856   2.880   0.231 -0.6571  1.8484  0.6245
 2492SOL    HW2 8918   0.803   2.879   0.090  0.3976 -0.4077  0.1899
 2493SOL     OW 8919   7.706   3.761   6.944 -0.1689  0.5720 -0.2463
 2493SOL    HW1 8920   7.727   3.782   6.853 -2.5408 -0.5847 -1.1604
 2493SOL    HW2 8921   7.675   3.843   6.981  0.3938  0.9601 -0.6232
 2494SOL     OW 8922   3.045   6.565   6.952 -0.1127  0.2647  0.6345
 2494SOL    HW1 8923   3.013   6.479   6.925 -0.7382  0.8735 -0.6509
 2494SOL    HW2 8924   3.129   6.547   6.995  0.7656 -0.8351 -1.3794
 2495SOL     OW 8925   6.278   3.294   6.319 -0.1463  0.7760 -0.2809
 2495SOL    HW1 8926   6.309   3.366   6.374 -1.2221  0.0113  1.4310
 2495SOL    HW2 8927   6.183   3.301   6.322 -0.2648 -0.5763 -0.2597
 2496SOL     OW 8928   2.753   0.257   7.506  0.0937 -0.2850 -0.3221
 2496SOL    HW1 8929   2.795   0.315   7.570 -1.3914  0.8270 -0.3143
 2496SOL    HW2 8930   2.761   0.170   7.545 -2.1632  0.5234  2.2565
 2497SOL     OW 8931   6.240   6.948   6.941 -0.3874  0.3008 -0.2068
 2497SOL    HW1 8932   6.235   6.886   6.868  0.0715  2.5549 -2.2576
 2497SOL    HW2 8933   6.153   6.945   6.980 -0.8355 -0.5249 -1.2199
 2498SOL     OW 8934   3.135   5.307   7.807 -0.4554 -0.6534 -0.0734
 2498SOL    HW1 8935   3.111   5.227   7.853 -2.0701  0.6448  1.5051
 2498SOL    HW2 8936   3.060   5.327   7.752  0.2097 -0.5564 -0.9624
 2499SOL     OW 8937   2.376   0.553  10.689  0.2400 -0.0375  0.3022
 2499SOL    HW1 8938   2.315   0.539  10.761  0.6576  0.7102  0.8207
 2499SOL    HW2 8939   2.354   0.486  10.624 -0.9253  0.0321  0.6092
 2500SOL     OW 8940   5.690   1.780   3.290  0.5189 -0.1071  0.0778
 2500SOL    HW1 8941   5.757   1.751   3.228 -0.6592  0.1943 -1.3789
 2500SOL    HW2 8942   5.698   1.875   3.292  2.0919 -0.2119  2.2332
 2501SOL     OW 8943   0.693   0.159   7.344  0.3510 -0.2165  0.5468
 2501SOL    HW1 8944   0.652   0.170   7.430 -1.9638 -1.6075 -0.3043
 2501SOL    HW2 8945   0.703   0.065   7.334 -0.0366 -0.1140 -0.9842
 2502SOL     OW 8946   3.249   7.737   0.309 -0.3784 -0.7540  0.3824
 2502SOL    HW1 8947   3.296   7.815   0.279 -0.3956 -1.0727 -0.4845
 2502SOL    HW2 8948   3.231   7.755   0.401 -1.3778  0.7648 -0.0725
 2503SOL     OW 8949   1.967   1.514  11.252  0.4104 -0.0196 -0.5197
 2503SOL    HW1 8950   2.041   1.490  11.307 -0.7786  0.8741  1.5780
 2503SOL    HW2 8951   1.982   1.606  11.229  0.3109 -0.0484 -0.7067
 2504SOL     OW 8952   3.211   7.056  11.828 -0.5042  0.0153  0.3953
 2504SOL    HW1 8953   3.254   7.055  11.914 -2.2225  1.3755  1.3426
 2504SOL    HW2 8954   3.244   7.135  11.785 -0.5794  0.0173  0.3398
 2505SOL     OW 8955   1.127   2.512  10.814  0.0561  0.2068  0.0952
 2505SOL    HW1 8956   1.209   2.540  10.773  1.0889  1.5713  2.8302
 2505SOL    HW2 8957   1.063   2.579  10.789  0.2156  0.0710 -0.6762
 2506SOL     OW 8958   0.106   4.173   9.483  0.0779 -0.7802 -0.4328
 2506SOL    HW1 8959   0.022   4.215   9.467  0.3603 -0.8483 -2.3027
 2506SOL    HW2 8960   0.168   4.246   9.491 -0.3722 -0.6151  2.9836
 2507SOL     OW 8961   3.693   0.128   9.103 -0.0851 -0.2774  0.1440
 2507SOL    HW1 8962   3.697   0.057   9.167  1.3818 -0.0792  0.3082
 2507SOL    HW2 8963   3.719   0.206   9.153  1.6302 -0.2086 -0.7621
 2508SOL     OW 8964   1.136   4.069  11.583 -0.3033  0.4403 -0.6476
 2508SOL    HW1 8965   1.156   4.139  11.520  0.4601  0.4632 -0.3898
 2508SOL    HW2 8966   1.081   4.008  11.534 -0.4337  0.8886 -1.0758
 2509SOL     OW 8967   3.416   2.509   7.283 -0.0120 -0.2489  0.0807
 2509SOL    HW1 8968   3.433   2.600   7.310 -0.0157 -0.6714  1.6174
 2509SOL    HW2 8969   3.444   2.457   7.358  1.6161 -1.6762 -1.4433
 2510SOL     OW 8970   4.271   7.325  11.057 -0.9662 -0.1375  0.0353
 2510SOL    HW1 8971   4.345   7.369  11.016  0.5393  0.5334  3.1085
 2510SOL    HW2 8972   4.244   7.384  11.128 -1.7569 -2.1786  1.5546
 2511SOL     OW 8973   2.523   6.850   7.082  0.4524 -0.6721 -0.1772
 2511SOL    HW1 8974   2.597   6.852   7.142  0.2476  1.1166  0.0448
 2511SOL    HW2 8975   2.552   6.791   7.012  1.9033 -0.3915  0.1463
 2512SOL     OW 8976   3.819   7.546  11.223 -0.8212  0.5495  0.1151
 2512SOL    HW1 8977   3.778   7.605  11.287 -0.7209  1.5041 -0.6867
 2512SOL    HW2 8978   3.882   7.601  11.177 -1.5674  0.1382 -1.4715
 2513SOL     OW 8979   4.400   5.389   8.644  0.3575 -0.0028 -0.2791
 2513SOL    HW1 8980   4.369   5.373   8.733  0.1188  0.4063 -0.2883
 2513SOL    HW2 8981   4.474   5.328   8.633 -1.1372 -1.8323 -0.6520
 2514SOL     OW 8982   3.944   1.521   9.853 -0.0887 -0.4400 -0.5405
 2514SOL    HW1 8983   3.993   1.447   9.887 -0.2998 -0.6841 -0.7589
 2514SOL    HW2 8984   3.984   1.598   9.894  1.8403 -0.4336 -2.2875
 2515SOL     OW 8985   3.356   0.110   7.659 -0.1710  0.5600 -0.2751
 2515SOL    HW1 8986   3.404   0.054   7.720 -2.9549 -0.8017  0.8525
 2515SOL    HW2 8987   3.370   0.070   7.573  1.3075  0.6716 -0.1032
 2516SOL     OW 8988   4.436   1.477   2.394  0.0637  0.1314 -0.4181
 2516SOL    HW1 8989   4.444   1.542   2.325  0.7877  0.4401 -0.0634
 2516SOL    HW2 8990   4.425   1.528   2.474 -0.0149 -0.1985 -0.2166
 2517SOL     OW 8991   5.921   1.151   8.023  0.1147 -0.1359  0.7121
 2517SOL    HW1 8992   5.926   1.119   7.933  0.4444  0.5100  0.4940
 2517SOL    HW2 8993   6.011   1.174   8.045 -0.0727  0.3715  0.9595
 2518SOL     OW 8994   4.727   2.119   8.810 -0.4507  0.4412  0.0469
 2518SOL    HW1 8995   4.763   2.064   8.740 -0.8823 -1.0517  0.9503
 2518SOL    HW2 8996   4.669   2.060   8.859  0.7109  1.1173  2.3586
 2519SOL     OW 8997   0.312   4.857   6.165 -0.0029 -0.4323  1.0813
 2519SOL    HW1 8998   0.405   4.838   6.179 -0.0102  0.2255  2.2002
 2519SOL    HW2 8999   0.267   4.802   6.229 -0.5020 -1.7501 -0.3488
 2520SOL     OW 9000   3.816   4.196   6.009  0.0104  0.4856  0.0367
 2520SOL    HW1 9001   3.809   4.155   5.923 -0.3053  1.0518 -0.2178
 2520SOL    HW2 9002   3.830   4.289   5.990  0.9808  0.4723  0.5966
 2521SOL     OW 9003   0.918   3.993   5.768 -0.6300 -0.1234 -0.2940
 2521SOL    HW1 9004   0.999   3.943   5.775 -0.6972 -0.0768  1.3229
 2521SOL    HW2 9005   0.849   3.928   5.781 -0.7043  0.3733  2.4886
 2522SOL     OW 9006   7.272   3.085   0.542  0.0746  0.0339  0.1580
 2522SOL    HW1 9007   7.297   3.126   0.459  0.2856  0.3937  0.3958
 2522SOL    HW2 9008   7.210   3.146   0.581  1.3463  0.7630  1.1030
 2523SOL     OW 9009   7.629   7.774   9.751  0.1483 -0.1434  0.0004
 2523SOL    HW1 9010   7.580   7.738   9.825  1.5060 -0.7298  0.6519
 2523SOL    HW2 9011   7.644   7.866   9.773  1.0934 -0.4678  0.7852
 2524SOL     OW 9012   7.651   5.524   3.114  0.4053 -0.0326 -0.5870
 2524SOL    HW1 9013   7.579   5.477   3.156  0.1963 -1.2390 -2.2170
 2524SOL    HW2 9014   7.608   5.580   3.048  0.8779  0.1036 -0.7843
 2525SOL     OW 9015   0.315   2.690   6.377  0.2592  0.0278 -0.3424
 2525SOL    HW1 9016   0.405   2.656   6.381  0.3653  0.2921 -0.4805
 2525SOL    HW2 9017   0.325   2.785   6.377 -0.0850  0.0965  1.3470
 2526SOL     OW 9018   3.392   5.422  11.408 -0.3136 -0.0637 -0.9665
 2526SOL    HW1 9019   3.389   5.487  11.338  1.1616 -0.2404 -1.2289
 2526SOL    HW2 9020   3.449   5.462  11.474  0.5832 -1.0737 -1.1193
 2527SOL     OW 9021   4.242   4.731   3.177 -0.3901 -0.0052  0.4388
 2527SOL    HW1 9022   4.235   4.680   3.258  1.5394 -1.0904 -0.0214
 2527SOL    HW2 9023   4.278   4.670   3.113  4.1607  2.2388  0.3833
 2528SOL     OW 9024   2.359   6.495   6.011  0.7461 -0.7446  0.3815
 2528SOL    HW1 9025   2.279   6.458   5.974  1.6524  0.1037 -2.7358
 2528SOL    HW2 9026   2.332   6.534   6.094 -1.9236 -1.0793 -0.2581
 2529SOL     OW 9027   1.819   2.261   5.700 -0.3793  0.0650  0.1510
 2529SOL    HW1 9028   1.817   2.347   5.742 -1.6412 -0.0992  0.4751
 2529SOL    HW2 9029   1.868   2.205   5.759 -2.0964 -0.1549  1.4525
 2530SOL     OW 9030   7.161   5.505   1.823  0.3760  0.0596  0.1947
 2530SOL    HW1 9031   7.138   5.540   1.737  1.5871  0.0019 -0.1690
 2530SOL    HW2 9032   7.163   5.410   1.810 -1.0493 -0.0614  0.7115
 2531SOL     OW 9033   0.159   4.089   6.297  0.2290  0.4072  0.4049
 2531SOL    HW1 9034   0.116   4.043   6.225 -2.4226 -0.1275  2.1712
 2531SOL    HW2 9035   0.253   4.075   6.282 -0.2900 -0.9461 -2.0776
 2532SOL     OW 9036   7.743   2.237   5.501 -0.4858 -0.4696  0.0085
 2532SOL    HW1 9037   7.766   2.258   5.592 -1.0195 -1.7814  0.4666
 2532SOL    HW2 9038   7.809   2.282   5.449 -1.2871  1.9101  0.9286
 2533SOL     OW 9039   2.096   6.141   3.578  0.2072  0.0080  0.5636
 2533SOL    HW1 9040   2.027   6.102   3.525 -0.8252  0.1014  1.7960
 2533SOL    HW2 9041   2.055   6.157   3.663  1.4470  1.0435  1.0011
 2534SOL     OW 9042   1.730   5.366   9.586 -0.2004  0.2214 -0.3673
 2534SOL    HW1 9043   1.658   5.371   9.523 -0.3791  0.9086 -0.1250
 2534SOL    HW2 9044   1.742   5.457   9.615  0.0893 -0.0379  0.3483
 2535SOL     OW 9045   3.330   7.814   8.864  0.1538 -0.1971 -0.6596
 2535SOL    HW1 9046   3.367   7.886   8.914 -0.2557  0.1155 -0.8059
 2535SOL    HW2 9047   3.373   7.820   8.779 -0.3026  0.2256 -0.8617
 2536SOL     OW 9048   3.704   4.941   2.731  0.0868 -0.1302  0.5178
 2536SOL    HW1 9049   3.703   4.852   2.766 -0.6291  0.1717  1.3148
 2536SOL    HW2 9050   3.614   4.957   2.703  0.0337  0.5900  1.0616
 2537SOL     OW 9051   5.506   2.350   7.928  0.3905  0.7504 -0.2736
 2537SOL    HW1 9052   5.445   2.321   7.996 -1.7047  1.6202 -1.6786
 2537SOL    HW2 9053   5.480   2.439   7.908  1.9286  1.0329 -1.1926
 2538SOL     OW 9054   1.258   4.451  10.647 -0.5404 -0.0642 -0.0627
 2538SOL    HW1 9055   1.300   4.531  10.617 -0.8389 -0.3661 -1.3338
 2538SOL    HW2 9056   1.257   4.459  10.743  0.2727  1.0085 -0.1259
 2539SOL     OW 9057   5.332   5.160   9.704 -0.2221 -0.6965 -0.4380
 2539SOL    HW1 9058   5.386   5.238   9.717 -1.2369  0.3645 -2.1456
 2539SOL    HW2 9059   5.259   5.171   9.764 -1.1011  0.4521 -1.6488
 2540SOL     OW 9060   7.694   1.959  10.593  0.2393 -0.4151 -0.4051
 2540SOL    HW1 9061   7.694   2.054  10.581  1.6253 -0.0379  2.0359
 2540SOL    HW2 9062   7.612   1.941  10.640 -0.9836 -0.7612 -2.5342
 2541SOL     OW 9063   7.927   4.120   4.150 -0.6376 -0.2162 -0.7173
 2541SOL    HW1 9064   7.984   4.045   4.138 -0.4436  0.0459 -1.4422
 2541SOL    HW2 9065   7.840   4.090   4.125 -0.2513  0.3095 -2.8380
 2542SOL     OW 9066   6.246   7.412   4.995 -0.3274  0.2264 -0.8080
 2542SOL    HW1 9067   6.319   7.361   4.958  0.1594 -0.0825  0.5261
 2542SOL    HW2 9068   6.289   7.482   5.044 -0.9373  0.3119 -0.3886
 2543SOL     OW 9069   7.084   3.314   2.713 -0.4466  0.1998  0.7473
 2543SOL    HW1 9070   7.041   3.257   2.650  1.4602  2.7344 -3.2306
 2543SOL    HW2 9071   7.139   3.256   2.765 -1.6832 -1.9765 -0.2480
 2544SOL     OW 9072   1.505   6.773   1.497  0.1774  0.7118 -0.3851
 2544SOL    HW1 9073   1.555   6.796   1.418  1.9538  1.6443  0.9319
 2544SOL    HW2 9074   1.515   6.678   1.504  0.8290  0.7432 -0.7686
 2545SOL     OW 9075   3.449   2.811   1.152 -0.1593 -0.1913 -0.7375
 2545SOL    HW1 9076   3.487   2.843   1.070 -1.4018  0.9291 -0.8995
 2545SOL    HW2 9077   3.466   2.881   1.215 -0.2412 -0.5416 -0.3204
 2546SOL     OW 9078   5.280   4.898   6.078 -0.4598 -0.8110  0.0300
 2546SOL    HW1 9079   5.287   4.903   5.982 -0.1911 -2.0723 -0.0339
 2546SOL    HW2 9080   5.188   4.877   6.094  0.0201 -3.4318 -0.1417
 2547SOL     OW 9081   0.916   5.407   4.615 -0.1832  0.3666  0.3351
 2547SOL    HW1 9082   0.934   5.355   4.693  0.0516  0.7164  0.5207
 2547SOL    HW2 9083   0.978   5.375   4.550 -1.9824 -1.6102 -0.5115
 2548SOL     OW 9084   2.039   0.391   4.467  0.7066  0.2721 -0.3312
 2548SOL    HW1 9085   1.983   0.466   4.487 -0.0198 -0.5503  0.8287
 2548SOL    HW2 9086   2.030   0.333   4.543  1.8734 -0.6336 -0.8471
 2549SOL     OW 9087   4.697   6.715   4.452 -0.0889 -0.1281 -0.1564
 2549SOL    HW1 9088   4.639   6.788   4.474  0.4444  0.5419 -0.9088
 2549SOL    HW2 9089   4.650   6.666   4.385  0.2869  0.5263 -0.9073
 2550SOL     OW 9090   7.698   1.910   7.190 -0.1957  0.1585  0.3776
 2550SOL    HW1 9091   7.777   1.881   7.236 -0.5135 -1.9093 -0.2634
 2550SOL    HW2 9092   7.731   1.968   7.122  1.0621 -2.0681 -1.0454
 2551SOL     OW 9093   4.378   3.045   6.682  0.0010 -0.2441  0.2536
 2551SOL    HW1 9094   4.387   3.130   6.726  0.5765 -1.2585  2.2304
 2551SOL    HW2 9095   4.466   3.026   6.649 -0.9909  1.8986 -4.3273
 2552SOL     OW 9096   2.467   7.929  11.568  0.6088 -0.5364  0.5053
 2552SOL    HW1 9097   2.445   7.837  11.578  0.4233 -0.5544 -0.0442
 2552SOL    HW2 9098   2.382   7.973  11.562  0.6198 -0.0486  3.0483
 2553SOL     OW 9099   4.256   7.167   8.731  0.2209 -0.4594 -0.0400
 2553SOL    HW1 9100   4.346   7.153   8.758 -0.1224 -1.4611  0.6566
 2553SOL    HW2 9101   4.222   7.230   8.794  0.2360 -0.6188  0.1283
 2554SOL     OW 9102   1.412   1.519   7.765 -0.8029  0.1341 -0.6971
 2554SOL    HW1 9103   1.354   1.502   7.839  0.4203 -2.1983 -0.1543
 2554SOL    HW2 9104   1.496   1.481   7.792  0.4540  1.6909 -2.2010
 2555SOL     OW 9105   6.237   2.858   0.437 -0.3359 -0.0085 -0.1096
 2555SOL    HW1 9106   6.331   2.871   0.450 -0.1836 -0.7977 -0.4013
 2555SOL    HW2 9107   6.218   2.903   0.355  0.1539 -1.4280 -1.0184
 2556SOL     OW 9108   7.695   7.617   3.865  0.2909  0.2835  0.0282
 2556SOL    HW1 9109   7.657   7.537   3.829 -1.4486  0.8561  0.5040
 2556SOL    HW2 9110   7.689   7.606   3.960  0.8535  0.6085  0.1070
 2557SOL     OW 9111   4.325   6.078   0.306  0.3090  0.4631  0.1908
 2557SOL    HW1 9112   4.289   6.110   0.223 -2.4612 -0.8120  0.8021
 2557SOL    HW2 9113   4.344   6.157   0.356 -1.8627  1.2632 -0.1468
 2558SOL     OW 9114   4.662   6.533   9.802 -0.2813 -0.2748  0.1866
 2558SOL    HW1 9115   4.624   6.538   9.714  0.8322 -1.0789 -0.3654
 2558SOL    HW2 9116   4.756   6.525   9.787  0.5702  4.3612  1.5379
 2559SOL     OW 9117   3.375   3.521  11.175 -0.1634  0.2598  0.2565
 2559SOL    HW1 9118   3.434   3.499  11.104 -1.1321 -2.9767  0.2658
 2559SOL    HW2 9119   3.424   3.500  11.255  0.2441  2.0599  0.5304
 2560SOL     OW 9120   0.212   5.738   2.489 -0.2471 -0.2682 -0.3080
 2560SOL    HW1 9121   0.213   5.673   2.559 -0.6744  0.2113  0.1492
 2560SOL    HW2 9122   0.262   5.697   2.418  0.9193 -0.4184  0.5700
 2561SOL     OW 9123   3.437   1.776   7.768 -0.2553 -0.0401  0.3686
 2561SOL    HW1 9124   3.356   1.767   7.818 -0.3550 -1.4876 -0.0013
 2561SOL    HW2 9125   3.462   1.686   7.747  1.4595  0.3872  0.4756
 2562SOL     OW 9126   0.173   2.385   3.582 -0.4377 -0.4001 -0.1463
 2562SOL    HW1 9127   0.145   2.466   3.624 -0.4476 -0.4463 -0.0647
 2562SOL    HW2 9128   0.265   2.400   3.560 -0.3081 -0.5474  0.2996
 2563SOL     OW 9129   5.308   4.806   5.319  0.5582  0.0879 -0.4115
 2563SOL    HW1 9130   5.340   4.725   5.280  0.9851 -0.0041  0.1099
 2563SOL    HW2 9131   5.224   4.783   5.358  1.0109 -0.3043  0.3755
 2564SOL     OW 9132   3.446   6.378   6.032  0.1783  0.3482  0.3720
 2564SOL    HW1 9133   3.446   6.460   6.081  1.8388  1.0960 -0.7668
 2564SOL    HW2 9134   3.356   6.347   6.036 -0.5831  2.4526  0.4792
 2565SOL     OW 9135   3.662   5.705   1.828 -0.0633  0.5461  0.6491
 2565SOL    HW1 9136   3.611   5.755   1.765 -0.6504 -2.6211 -1.6510
 2565SOL    HW2 9137   3.604   5.695   1.904 -1.7320 -0.3718 -0.6787
 2566SOL     OW 9138   0.007   0.388   2.307  0.3104  0.0227  0.2098
 2566SOL    HW1 9139  -0.035   0.380   2.392  0.2574 -0.7127  0.1218
 2566SOL    HW2 9140   0.061   0.467   2.313  0.1473  0.0830  0.8521
 2567SOL     OW 9141   4.364   0.163   7.091 -0.2684  0.4809 -0.0066
 2567SOL    HW1 9142   4.290   0.140   7.036 -0.5261 -0.2897  0.6537
 2567SOL    HW2 9143   4.377   0.088   7.149  0.9265  0.6591  0.0010
 2568SOL     OW 9144   3.375   0.036   4.744 -0.0519 -0.2967 -0.0386
 2568SOL    HW1 9145   3.320  -0.038   4.717 -2.3274  1.6098 -0.9766
 2568SOL    HW2 9146   3.464   0.002   4.738 -0.9327 -2.6461 -1.4774
 2569SOL     OW 9147   2.245   2.177   5.384 -0.1456 -0.4643 -0.5742
 2569SOL    HW1 9148   2.216   2.268   5.374 -0.8575 -0.5339  0.6418
 2569SOL    HW2 9149   2.334   2.185   5.419 -0.3074 -0.2289 -0.2108
 2570SOL     OW 9150   5.063   7.797  10.678  0.0922  0.5554  0.2014
 2570SOL    HW1 9151   5.059   7.760  10.590 -0.6605  0.1584  0.3945
 2570SOL    HW2 9152   5.025   7.730  10.735 -1.6791  1.7398  0.5025
 2571SOL     OW 9153   6.641   6.687   9.483 -0.1322  0.2145 -0.6368
 2571SOL    HW1 9154   6.643   6.607   9.536 -1.1743  0.2480 -0.5295
 2571SOL    HW2 9155   6.720   6.681   9.428  1.3388  0.5000  1.3237
 2572SOL     OW 9156   6.344   2.605  11.278  0.3659  0.3716  0.2493
 2572SOL    HW1 9157   6.251   2.618  11.258  0.7219  1.8506 -0.5750
 2572SOL    HW2 9158   6.367   2.523  11.234 -0.8176 -0.7037  1.5186
 2573SOL     OW 9159   5.662   3.064   0.025  0.1732  0.0906  0.2488
 2573SOL    HW1 9160   5.650   2.970   0.034 -0.6189  0.1170 -0.4014
 2573SOL    HW2 9161   5.700   3.076  -0.062 -1.2615  0.4634 -0.3597
 2574SOL     OW 9162   0.989   5.125   4.400 -0.1324  0.5547  0.4827
 2574SOL    HW1 9163   1.029   5.212   4.400  1.7988 -0.2141 -1.7912
 2574SOL    HW2 9164   1.008   5.090   4.313 -2.0268 -1.6455  0.8519
 2575SOL     OW 9165   5.280   4.112   0.066  0.0249 -0.2300  0.1827
 2575SOL    HW1 9166   5.280   4.042   0.131 -2.4812  0.4533  1.0513
 2575SOL    HW2 9167   5.323   4.185   0.110 -0.8524 -0.0492  0.7588
 2576SOL     OW 9168   1.701   7.870   1.221  0.1125 -0.0672 -0.8963
 2576SOL    HW1 9169   1.796   7.874   1.227  0.2106  0.1104 -2.1697
 2576SOL    HW2 9170   1.684   7.795   1.164 -0.5673 -0.8009  0.2430
 2577SOL     OW 9171   5.174   0.033   3.742 -0.3753  0.2111  0.1786
 2577SOL    HW1 9172   5.268   0.017   3.737 -0.4077  0.3089 -1.0139
 2577SOL    HW2 9173   5.134  -0.053   3.726 -0.4921  0.0093  1.4834
 2578SOL     OW 9174   0.445   3.950   7.410  0.0510 -0.3084 -0.1040
 2578SOL    HW1 9175   0.503   3.887   7.368  0.2879 -1.0683  1.3342
 2578SOL    HW2 9176   0.443   3.925   7.502 -1.5492  0.4828  0.1165
 2579SOL     OW 9177   2.260   3.569   5.198  0.0872  0.5370 -0.1987
 2579SOL    HW1 9178   2.321   3.625   5.149 -1.8668  2.7745 -0.2520
 2579SOL    HW2 9179   2.186   3.558   5.139 -0.4254 -0.4436  0.6078
 2580SOL     OW 9180   7.961   0.722  12.008 -0.0655  0.0525 -0.1659
 2580SOL    HW1 9181   7.928   0.783  11.943 -1.9705 -1.9116 -1.1660
 2580SOL    HW2 9182   7.884   0.694  12.057  1.1344  0.4560  2.1153
 2581SOL     OW 9183   2.407   7.871   6.220 -0.1849 -0.0853  0.6476
 2581SOL    HW1 9184   2.419   7.776   6.212  0.2548  0.0994 -2.1776
 2581SOL    HW2 9185   2.491   7.904   6.251  0.4913 -0.4791 -0.6557
 2582SOL     OW 9186   5.978   0.866   2.977 -0.7319  0.5401 -0.1128
 2582SOL    HW1 9187   6.026   0.863   3.060 -2.2243 -1.4444  0.7465
 2582SOL    HW2 9188   5.904   0.924   2.994 -0.6995  0.6173 -0.2377
 2583SOL     OW 9189   2.417   6.636   5.382  0.0270 -0.1876 -0.3950
 2583SOL    HW1 9190   2.505   6.601   5.396 -0.1836 -0.6280 -0.1645
 2583SOL    HW2 9191   2.397   6.614   5.291 -0.3818 -1.3021 -0.0504
 2584SOL     OW 9192   2.408   4.751   7.080  0.3049 -0.7343 -0.2956
 2584SOL    HW1 9193   2.428   4.772   7.171  0.4805 -1.1312 -0.2385
 2584SOL    HW2 9194   2.368   4.664   7.084 -0.9872 -0.1690 -0.4589
 2585SOL     OW 9195   6.429   5.529   8.321  0.0634 -0.2373 -0.5894
 2585SOL    HW1 9196   6.514   5.573   8.318  0.4220 -0.5413  2.2660
 2585SOL    HW2 9197   6.430   5.468   8.247  2.1879  0.0307 -0.8276
 2586SOL     OW 9198   6.371   0.486   4.798  0.4892  0.3263 -0.2852
 2586SOL    HW1 9199   6.445   0.547   4.800  0.8561  0.1716 -3.7985
 2586SOL    HW2 9200   6.298   0.538   4.765 -0.0664 -0.3320 -0.1093
 2587SOL     OW 9201   4.518   0.573   7.739 -0.7749  0.3520 -0.0639
 2587SOL    HW1 9202   4.566   0.512   7.683  0.2514  1.2370 -0.1796
 2587SOL    HW2 9203   4.586   0.622   7.785 -1.5768 -0.1162  1.7459
 2588SOL     OW 9204   7.926   2.116   7.122  0.2768  0.0404  0.1612
 2588SOL    HW1 9205   7.993   2.181   7.103  1.2620 -0.6613  1.0882
 2588SOL    HW2 9206   7.974   2.033   7.126 -0.7959 -0.6160 -0.0755
 2589SOL     OW 9207   3.076   1.744   0.044  0.4214 -0.1964  0.0009
 2589SOL    HW1 9208   3.026   1.801  -0.014 -1.6060 -2.2759 -0.4316
 2589SOL    HW2 9209   3.096   1.667  -0.009  0.8740 -0.9789  1.2637
 2590SOL     OW 9210   2.723   7.969   6.556 -0.6660 -0.4534 -0.5462
 2590SOL    HW1 9211   2.654   7.998   6.616  0.5218  1.4101 -0.0183
 2590SOL    HW2 9212   2.732   8.040   6.494  1.5550 -0.1212  0.0886
 2591SOL     OW 9213   6.942   3.982   6.718  0.3684 -0.0602 -0.7201
 2591SOL    HW1 9214   7.010   4.006   6.781  2.0586 -0.3012 -2.4031
 2591SOL    HW2 9215   6.988   3.970   6.635 -1.2634 -2.9815 -1.3604
 2592SOL     OW 9216   7.224   5.971   1.896  0.3284 -0.1094  0.7596
 2592SOL    HW1 9217   7.176   6.047   1.862  2.2604  1.0307  0.4245
 2592SOL    HW2 9218   7.237   5.991   1.989 -1.2448 -1.2256  1.2709
 2593SOL     OW 9219   4.916   7.666  11.646 -0.0204  0.2333 -0.0991
 2593SOL    HW1 9220   4.832   7.621  11.634 -1.4581  2.6750 -0.0406
 2593SOL    HW2 9221   4.948   7.636  11.731 -2.8615  2.0422  1.8019
 2594SOL     OW 9222   1.368   2.426   7.893  0.8954 -0.0033 -0.1544
 2594SOL    HW1 9223   1.388   2.354   7.834  0.7399 -1.3449  1.3707
 2594SOL    HW2 9224   1.436   2.422   7.960 -0.5205 -0.3513  1.3353
 2595SOL     OW 9225   5.940   1.617   4.507  0.6310 -0.5158 -0.4853
 2595SOL    HW1 9226   5.918   1.525   4.523 -1.8212  0.0318 -0.3769
 2595SOL    HW2 9227   6.032   1.624   4.533  0.4526 -2.5938  0.9956
 2596SOL     OW 9228   2.176   0.524   1.297 -0.0876 -0.0204  0.4858
 2596SOL    HW1 9229   2.159   0.588   1.366  1.3145  1.7828 -0.7378
 2596SOL    HW2 9230   2.089   0.490   1.274 -0.6457 -0.1962  2.6360
 2597SOL     OW 9231   0.028   7.785   7.092  0.4870 -0.0446  0.4741
 2597SOL    HW1 9232  -0.045   7.823   7.043 -0.1985 -0.2019  1.3514
 2597SOL    HW2 9233   0.068   7.860   7.135  0.1180 -0.1037  0.9263
 2598SOL     OW 9234   5.615   3.780   3.238  0.2430 -0.3211  0.4832
 2598SOL    HW1 9235   5.620   3.869   3.202 -1.2782 -1.2774 -2.3721
 2598SOL    HW2 9236   5.702   3.743   3.220  0.4473  0.1537  0.4631
 2599SOL     OW 9237   6.947   1.855  12.465 -0.1788 -0.2136  0.7816
 2599SOL    HW1 9238   6.915   1.927  12.519  1.1883  1.0766 -0.0493
 2599SOL    HW2 9239   7.002   1.897  12.398  0.1678 -1.9696 -0.1152
 2600SOL     OW 9240   4.021   0.446   4.986  0.7003 -0.2369 -0.3939
 2600SOL    HW1 9241   4.076   0.441   4.908  2.0487 -1.5215  0.5743
 2600SOL    HW2 9242   4.033   0.535   5.019  0.0814  0.3278 -1.6522
 2601SOL     OW 9243   7.130   5.304   4.917  0.1110  0.5274 -0.4886
 2601SOL    HW1 9244   7.113   5.392   4.884 -0.5443  0.3395 -0.6683
 2601SOL    HW2 9245   7.086   5.246   4.854  1.3945  0.0180 -0.9413
 2602SOL     OW 9246   4.563   3.098   9.656  0.2742 -0.1114 -0.4426
 2602SOL    HW1 9247   4.633   3.084   9.592 -0.1716  1.7080 -1.4096
 2602SOL    HW2 9248   4.581   3.185   9.692 -0.5705 -0.3139  0.5197
 2603SOL     OW 9249   5.746   4.764   5.651  0.0074  1.4743  0.2272
 2603SOL    HW1 9250   5.763   4.671   5.665 -0.4484  0.8449 -2.6388
 2603SOL    HW2 9251   5.651   4.770   5.644 -0.0445  2.3690  1.4520
 2604SOL     OW 9252   1.416   6.809   3.522  0.4045  0.1071  0.2878
 2604SOL    HW1 9253   1.331   6.807   3.477 -0.3556 -0.5706  1.6915
 2604SOL    HW2 9254   1.477   6.769   3.460  0.0262  1.8302 -1.3036
 2605SOL     OW 9255   0.342   4.980  11.056  0.5078 -0.0985  0.2292
 2605SOL    HW1 9256   0.425   5.012  11.091 -0.5556  1.8178  1.1333
 2605SOL    HW2 9257   0.346   4.998  10.963  1.8309 -1.7790 -0.0917
 2606SOL     OW 9258   0.174   1.039   2.393 -0.3196  0.1337 -0.0002
 2606SOL    HW1 9259   0.253   1.019   2.444  0.6735  1.7303 -0.8609
 2606SOL    HW2 9260   0.194   1.121   2.349 -1.6337 -0.5554 -1.9785
 2607SOL     OW 9261   5.461   1.792   7.136  0.7711  0.3052  0.0630
 2607SOL    HW1 9262   5.443   1.868   7.081 -1.5507 -0.4784 -0.3653
 2607SOL    HW2 9263   5.537   1.750   7.094 -1.2447 -0.5986 -3.0862
 2608SOL     OW 9264   0.955   3.116   6.205 -0.3388 -0.2117 -0.5026
 2608SOL    HW1 9265   1.012   3.142   6.278  0.4637 -0.7921 -0.9088
 2608SOL    HW2 9266   0.902   3.045   6.240  0.5544 -0.9844 -0.6828
 2609SOL     OW 9267   1.970   3.423   3.832 -0.1879  0.7467 -0.3485
 2609SOL    HW1 9268   1.991   3.391   3.920  0.2397  0.2770 -0.6184
 2609SOL    HW2 9269   2.045   3.476   3.807  0.3553 -0.2915 -0.9959
 2610SOL     OW 9270   2.855   2.950   4.059 -0.2028 -0.7625  0.0813
 2610SOL    HW1 9271   2.771   2.977   4.095  0.9940  0.7346  1.9346
 2610SOL    HW2 9272   2.903   3.032   4.046  0.8582 -1.5550 -1.2709
 2611SOL     OW 9273   1.112   5.045   4.144  0.0895  0.2939 -0.2716
 2611SOL    HW1 9274   1.125   4.965   4.094  3.4072  1.7558 -2.0167
 2611SOL    HW2 9275   1.048   5.095   4.094 -0.1399 -0.2103 -0.4890
 2612SOL     OW 9276   1.421   3.920  11.360  0.5607 -0.5993 -0.0490
 2612SOL    HW1 9277   1.445   4.009  11.388  1.6881 -0.4840 -1.2966
 2612SOL    HW2 9278   1.373   3.933  11.278  0.4071 -1.1292 -0.0483
 2613SOL     OW 9279   2.528   2.520   3.370 -0.0443 -0.7277  0.1316
 2613SOL    HW1 9280   2.522   2.515   3.466 -0.4481  1.3177  0.2696
 2613SOL    HW2 9281   2.619   2.546   3.353 -0.9349  3.1021  0.3200
 2614SOL     OW 9282   3.776   3.057   1.036 -0.5000  0.2133  0.4941
 2614SOL    HW1 9283   3.817   3.123   1.091  1.7489  0.8293 -1.7345
 2614SOL    HW2 9284   3.689   3.092   1.018  0.0397  1.7536  0.7390
 2615SOL     OW 9285   1.236   3.338   7.656 -0.2540  0.4902 -0.2486
 2615SOL    HW1 9286   1.220   3.328   7.562 -0.9462 -0.0262 -0.0838
 2615SOL    HW2 9287   1.322   3.379   7.662  0.8626 -1.5489 -1.0944
 2616SOL     OW 9288   3.440   5.557   2.304  0.6421  0.1273 -0.2427
 2616SOL    HW1 9289   3.444   5.472   2.348 -0.5753  0.7548  1.1816
 2616SOL    HW2 9290   3.454   5.621   2.374 -1.2977  1.1699 -0.7513
 2617SOL     OW 9291   3.171   6.077   2.745 -0.3737 -0.1850 -0.2121
 2617SOL    HW1 9292   3.205   6.001   2.792  1.4101  1.4574  1.3379
 2617SOL    HW2 9293   3.187   6.057   2.652  3.1157 -0.4260  0.3190
 2618SOL     OW 9294   7.000   7.302  11.555  0.0115 -0.1070 -0.0783
 2618SOL    HW1 9295   6.923   7.297  11.497  0.5794  0.0344 -0.8528
 2618SOL    HW2 9296   7.005   7.215  11.595 -0.5468 -0.1196 -0.0173
 2619SOL     OW 9297   2.549   7.567   1.118 -0.0475 -0.1317 -0.0180
 2619SOL    HW1 9298   2.639   7.597   1.108 -0.4590  1.4516  0.7173
 2619SOL    HW2 9299   2.556   7.488   1.173  1.3563 -3.5645 -4.4914
 2620SOL     OW 9300   1.177   2.384   5.646  0.3656 -0.1345  0.1531
 2620SOL    HW1 9301   1.254   2.436   5.625 -0.6536  1.9865  1.3577
 2620SOL    HW2 9302   1.202   2.334   5.723  1.1366 -0.9974 -0.6229
 2621SOL     OW 9303   2.253   6.779   6.556  0.4580 -0.0848 -0.1783
 2621SOL    HW1 9304   2.304   6.715   6.506  1.4257  1.2614 -0.9755
 2621SOL    HW2 9305   2.304   6.860   6.550  0.4459  0.2520  2.6963
 2622SOL     OW 9306   3.226   7.834   0.574  0.3152 -0.1722 -0.1060
 2622SOL    HW1 9307   3.304   7.779   0.577  0.3462 -0.2483 -1.5108
 2622SOL    HW2 9308   3.227   7.882   0.657 -0.5665 -3.3613  1.9260
 2623SOL     OW 9309   6.518   0.156   5.963 -0.3679 -0.0646  0.2288
 2623SOL    HW1 9310   6.610   0.173   5.944 -0.0323 -1.9296 -0.0167
 2623SOL    HW2 9311   6.484   0.119   5.882 -0.9473 -0.7688  0.7838
 2624SOL     OW 9312   3.157   5.642  10.396  0.1856 -0.5055 -0.5373
 2624SOL    HW1 9313   3.096   5.601  10.458  0.0982  0.3032 -0.0790
 2624SOL    HW2 9314   3.152   5.587  10.318 -0.5123 -0.9219 -0.2113
 2625SOL     OW 9315   0.502   7.218   7.969 -0.1739 -0.2309 -0.9190
 2625SOL    HW1 9316   0.574   7.248   8.024  1.2878 -0.8824 -2.4023
 2625SOL    HW2 9317   0.512   7.267   7.887 -1.4095 -0.3617 -1.1711
 2626SOL     OW 9318   0.294   0.139   1.880  0.4578  0.5964  0.4289
 2626SOL    HW1 9319   0.202   0.165   1.879  0.3010  0.1787  1.7129
 2626SOL    HW2 9320   0.292   0.048   1.851  0.3830  0.4188  0.9644
 2627SOL     OW 9321   6.122   5.159   7.948 -0.2651  0.2989 -0.1233
 2627SOL    HW1 9322   6.139   5.228   8.012  1.6743  1.7791 -2.0975
 2627SOL    HW2 9323   6.033   5.177   7.917 -2.3531 -1.9900  3.7813
 2628SOL     OW 9324   1.970   2.458   8.011  0.3436 -0.0917 -0.2583
 2628SOL    HW1 9325   2.063   2.438   7.995  0.7864  0.7664  1.0334
 2628SOL    HW2 9326   1.969   2.492   8.101 -1.4136 -1.2495  0.1902
 2629SOL     OW 9327   5.188   2.689  11.055 -0.1636 -0.4464  0.1960
 2629SOL    HW1 9328   5.244   2.765  11.043 -0.4130  0.1771  2.5508
 2629SOL    HW2 9329   5.248   2.619  11.082 -0.2774 -0.2170  1.0910
 2630SOL     OW 9330   2.431   5.123   2.360 -0.5747  0.1455  0.1279
 2630SOL    HW1 9331   2.352   5.118   2.414  0.9577  0.3135  2.5235
 2630SOL    HW2 9332   2.480   5.044   2.384  0.5548  0.6908 -0.3555
 2631SOL     OW 9333   3.309   4.438   9.842 -0.0933 -0.3284  0.1039
 2631SOL    HW1 9334   3.381   4.490   9.877  1.2529 -1.0376 -1.4757
 2631SOL    HW2 9335   3.327   4.431   9.748 -1.5204 -1.6114 -0.1269
 2632SOL     OW 9336   4.195   5.929   7.306  0.2126  0.8763  0.2168
 2632SOL    HW1 9337   4.226   6.015   7.278  0.3248 -0.3550 -4.3374
 2632SOL    HW2 9338   4.104   5.926   7.276 -0.4648  0.0592  2.2056
 2633SOL     OW 9339   3.190   1.327   9.492 -0.1648 -0.4849  0.1344
 2633SOL    HW1 9340   3.275   1.285   9.501 -0.5395 -1.1363  0.7729
 2633SOL    HW2 9341   3.127   1.255   9.495 -0.9209  0.1496  2.6762
 2634SOL     OW 9342   3.113   3.013   5.575 -0.0906  0.0297 -0.0065
 2634SOL    HW1 9343   3.159   3.021   5.491 -1.3658 -0.6019 -0.7913
 2634SOL    HW2 9344   3.177   3.041   5.640  1.6053 -1.3102 -1.0055
 2635SOL     OW 9345   3.300   3.070  11.192 -0.8356 -0.1577 -0.4200
 2635SOL    HW1 9346   3.323   3.133  11.124 -1.3150 -0.3435 -0.7587
 2635SOL    HW2 9347   3.302   2.985  11.147 -1.6631 -0.2257 -0.3282
 2636SOL     OW 9348   7.286   3.494   7.118 -0.1031 -0.1021  0.1206
 2636SOL    HW1 9349   7.344   3.502   7.194 -0.6541 -0.2559  0.5676
 2636SOL    HW2 9350   7.241   3.579   7.114 -0.2148 -0.1638  0.0779
 2637SOL     OW 9351   3.683   5.847   2.257 -0.6667 -0.3241  0.0061
 2637SOL    HW1 9352   3.734   5.828   2.336 -3.5087 -1.1713  1.7799
 2637SOL    HW2 9353   3.669   5.761   2.217  0.1398  0.0252 -1.0744
 2638SOL     OW 9354   1.098   4.423   2.802 -0.0418  0.5314  0.7803
 2638SOL    HW1 9355   1.087   4.364   2.727  1.6166  0.3497  0.6244
 2638SOL    HW2 9356   1.046   4.384   2.872  2.3102 -2.2040  1.2165
 2639SOL     OW 9357   5.991   2.853  12.309 -0.3596  0.0812 -0.6147
 2639SOL    HW1 9358   6.004   2.860  12.404 -0.0887  1.3213 -0.7288
 2639SOL    HW2 9359   6.073   2.815  12.277 -0.9664 -1.6590 -0.2270
 2640SOL     OW 9360   7.388   1.905   6.695  0.0677  0.6062 -0.1230
 2640SOL    HW1 9361   7.484   1.904   6.693  0.0535  0.5737 -1.2347
 2640SOL    HW2 9362   7.366   1.981   6.749  0.7077 -0.1404  1.2551
 2641SOL     OW 9363   5.830   2.608   7.784 -0.0798  0.6364 -0.0476
 2641SOL    HW1 9364   5.785   2.616   7.868 -1.1185 -1.6033 -0.3127
 2641SOL    HW2 9365   5.803   2.685   7.734 -0.4539  1.3412  1.1906
 2642SOL     OW 9366   6.038   3.936   4.796  0.0039 -0.9179 -0.5864
 2642SOL    HW1 9367   6.003   3.940   4.885  2.1155  1.0952  0.2568
 2642SOL    HW2 9368   5.982   3.994   4.745 -0.9793 -1.7851 -0.5428
 2643SOL     OW 9369   7.659   6.040   7.752 -0.1727 -0.2032 -0.5814
 2643SOL    HW1 9370   7.618   5.980   7.813 -0.4009 -0.8425 -1.3463
 2643SOL    HW2 9371   7.629   6.011   7.665  1.4563 -0.3748 -1.1243
 2644SOL     OW 9372   1.238   1.543   0.196  0.2617  0.3834  0.1857
 2644SOL    HW1 9373   1.288   1.581   0.123  1.6696 -1.1198  0.3228
 2644SOL    HW2 9374   1.242   1.611   0.264 -1.8761  2.2214 -1.3653
 2645SOL     OW 9375   0.894   6.064   0.642 -0.0362 -0.3350  0.1879
 2645SOL    HW1 9376   0.837   6.086   0.568 -0.5456 -2.8120 -0.2328
 2645SOL    HW2 9377   0.981   6.059   0.605 -0.2686 -1.4107 -0.2507
 2646SOL     OW 9378   3.762   6.168   9.627  0.4396 -0.0325 -0.1349
 2646SOL    HW1 9379   3.699   6.129   9.566  0.5120  1.2795 -1.0946
 2646SOL    HW2 9380   3.710   6.194   9.702 -0.0655  0.3806 -0.6155
 2647SOL     OW 9381   5.249   1.215  11.620  0.9639  0.3233 -0.4428
 2647SOL    HW1 9382   5.220   1.247  11.535  0.0496  0.7804  0.0314
 2647SOL    HW2 9383   5.304   1.140  11.600 -2.2759 -2.0202 -1.3287
 2648SOL     OW 9384   0.208   4.131   2.887 -0.2220  0.5861  0.0087
 2648SOL    HW1 9385   0.263   4.183   2.829  1.9715 -1.2986  0.2638
 2648SOL    HW2 9386   0.162   4.070   2.829 -0.2533  0.6063  0.0120
 2649SOL     OW 9387   4.010   4.474   9.240 -0.3329 -0.4901 -0.0114
 2649SOL    HW1 9388   3.931   4.461   9.188  1.0728 -0.3957 -2.3006
 2649SOL    HW2 9389   4.004   4.564   9.272 -1.2177 -0.5470  0.0030
 2650SOL     OW 9390   3.509   6.283   3.829  0.4346  0.4064  0.0886
 2650SOL    HW1 9391   3.425   6.243   3.805  0.4715  0.2965  0.1435
 2650SOL    HW2 9392   3.488   6.376   3.844  0.2302  0.2789  0.6015
 2651SOL     OW 9393   1.761   1.643   1.090  0.3832 -0.1008 -0.2013
 2651SOL    HW1 9394   1.774   1.548   1.095  2.9359  0.0997 -1.2015
 2651SOL    HW2 9395   1.700   1.662   1.161  0.5670 -2.3685  0.6680
 2652SOL     OW 9396   4.092   1.297  11.238 -0.4017  0.5985 -0.5375
 2652SOL    HW1 9397   4.011   1.315  11.285 -0.6559 -0.7956 -0.3933
 2652SOL    HW2 9398   4.086   1.349  11.158 -2.1346 -0.5931 -1.2400
 2653SOL     OW 9399   2.788   2.209   4.540 -0.2212 -0.0604  0.2951
 2653SOL    HW1 9400   2.774   2.142   4.473  0.0666  1.8665 -1.8166
 2653SOL    HW2 9401   2.883   2.223   4.540 -0.3284  0.6865  0.3352
 2654SOL     OW 9402   4.787   3.702   5.164 -0.1976  0.0267  0.3671
 2654SOL    HW1 9403   4.787   3.760   5.240 -3.3377  0.1159  0.4294
 2654SOL    HW2 9404   4.769   3.761   5.090  1.9802 -0.1852 -0.4215
 2655SOL     OW 9405   1.210   3.572  10.425 -0.1375  0.2373 -0.4512
 2655SOL    HW1 9406   1.237   3.593  10.514 -0.8427  0.0720 -0.1956
 2655SOL    HW2 9407   1.259   3.634  10.370  3.7106 -2.3968 -0.3847
 2656SOL     OW 9408   4.330   1.899   2.623 -0.3697 -0.7679 -0.3463
 2656SOL    HW1 9409   4.286   1.980   2.648 -1.5506 -2.0266  1.9873
 2656SOL    HW2 9410   4.422   1.924   2.614 -0.7842  0.9270 -0.2173
 2657SOL     OW 9411   3.899   5.276   7.657  0.0563  0.3724 -0.1277
 2657SOL    HW1 9412   3.824   5.266   7.599  1.8632 -0.3180 -2.4860
 2657SOL    HW2 9413   3.868   5.333   7.727 -3.4532 -2.0334  0.5139
 2658SOL     OW 9414   4.470   5.676   2.117  0.1028 -0.3089  0.2584
 2658SOL    HW1 9415   4.463   5.769   2.100 -0.8986 -0.3420  0.4200
 2658SOL    HW2 9416   4.380   5.644   2.115  0.1551 -0.8253  2.6928
 2659SOL     OW 9417   7.961   1.706   9.197  0.2579  0.3996  0.3329
 2659SOL    HW1 9418   7.933   1.659   9.275 -0.8055  0.5070  0.0253
 2659SOL    HW2 9419   7.884   1.755   9.169  1.0248  1.4651  0.0075
 2660SOL     OW 9420   4.387   4.197   5.908  0.0140  0.5569  0.5981
 2660SOL    HW1 9421   4.472   4.166   5.939  0.2942 -0.2232 -0.8562
 2660SOL    HW2 9422   4.324   4.161   5.970  0.6406 -0.0532  0.8961
 2661SOL     OW 9423   2.630   5.101   4.017  0.9278 -0.0897 -0.1352
 2661SOL    HW1 9424   2.673   5.168   4.070 -0.4306  1.1864 -0.5733
 2661SOL    HW2 9425   2.597   5.148   3.941 -0.2605 -1.2171 -0.3504
 2662SOL     OW 9426   2.994   7.465   2.305 -0.0193 -0.3407 -0.5507
 2662SOL    HW1 9427   2.953   7.402   2.246  0.7515 -1.1444 -0.2616
 2662SOL    HW2 9428   3.080   7.480   2.266  0.4236 -0.7350  0.2510
 2663SOL     OW 9429   1.870   6.240  12.231 -0.4928 -0.0719  0.5208
 2663SOL    HW1 9430   1.778   6.234  12.208 -0.5685  0.2061  0.7544
 2663SOL    HW2 9431   1.902   6.150  12.228 -0.2156  0.0439 -1.8556
 2664SOL     OW 9432   5.985   7.972  11.377  0.4215 -0.0351  0.0012
 2664SOL    HW1 9433   6.041   7.921  11.435 -0.3045 -1.2442 -0.3154
 2664SOL    HW2 9434   5.979   8.058  11.419  2.5010  0.1417  0.0160
 2665SOL     OW 9435   0.237   1.513   6.487 -0.0007  0.1642 -0.6204
 2665SOL    HW1 9436   0.317   1.557   6.515  0.3779 -0.5145 -0.6111
 2665SOL    HW2 9437   0.236   1.522   6.392  0.5372 -0.5683 -0.7005
 2666SOL     OW 9438   7.466   5.735   5.290  0.4081 -0.0141  0.2169
 2666SOL    HW1 9439   7.373   5.741   5.310  0.6077  1.1396  0.9008
 2666SOL    HW2 9440   7.507   5.800   5.347  1.5178  0.1868 -0.7725
 2667SOL     OW 9441   3.752   7.462   8.585 -0.1009  0.0575  0.7497
 2667SOL    HW1 9442   3.663   7.429   8.577 -0.3753  0.9637 -0.1075
 2667SOL    HW2 9443   3.743   7.551   8.619  0.5035  0.0192  1.0340
 2668SOL     OW 9444   2.948   0.067  11.742 -0.3467  0.5652  0.0082
 2668SOL    HW1 9445   2.876   0.125  11.717 -0.8494  0.3006  0.8053
 2668SOL    HW2 9446   2.908   0.002  11.799  0.0471 -1.0725 -1.4764
 2669SOL     OW 9447   5.821   1.124  11.651  0.0260  0.0835 -0.3254
 2669SOL    HW1 9448   5.858   1.208  11.679 -1.6566  0.7763 -0.0410
 2669SOL    HW2 9449   5.735   1.121  11.693 -0.0342 -1.6866 -0.5332
 2670SOL     OW 9450   6.060   4.095   3.109  0.4817 -0.5701 -0.2405
 2670SOL    HW1 9451   6.051   4.148   3.030 -0.6993  0.5801  0.6150
 2670SOL    HW2 9452   6.144   4.121   3.146  1.0642 -1.1561 -1.1387
 2671SOL     OW 9453   7.092   1.867   2.815  0.0738 -0.2841 -0.0092
 2671SOL    HW1 9454   7.094   1.948   2.867  1.2316  0.2964 -0.8963
 2671SOL    HW2 9455   7.007   1.828   2.835 -2.4827  3.2260 -2.6004
 2672SOL     OW 9456   2.769   7.134   3.363  0.8778 -0.1368  0.2726
 2672SOL    HW1 9457   2.779   7.179   3.279 -1.7118 -1.4244 -0.8214
 2672SOL    HW2 9458   2.837   7.067   3.362  0.8724 -0.1398 -0.8124
 2673SOL     OW 9459   5.797   0.144   1.715 -0.7143 -0.1546 -0.3821
 2673SOL    HW1 9460   5.856   0.069   1.729 -2.1219 -1.3836 -0.7993
 2673SOL    HW2 9461   5.755   0.158   1.799 -0.7302 -0.0747 -0.4036
 2674SOL     OW 9462   2.806   6.740   8.376  0.5333 -0.5174  0.2561
 2674SOL    HW1 9463   2.825   6.680   8.448 -0.1581  0.0350  0.9307
 2674SOL    HW2 9464   2.763   6.814   8.419  1.4002  0.4782 -0.5373
 2675SOL     OW 9465   0.339   3.148   1.834  0.2056  0.5548  0.2307
 2675SOL    HW1 9466   0.273   3.103   1.781  0.8505 -0.0502 -0.0875
 2675SOL    HW2 9467   0.348   3.094   1.912  0.2835  0.6589  0.2930
 2676SOL     OW 9468   5.049   7.661  11.274  0.0405 -0.1953 -0.1296
 2676SOL    HW1 9469   5.059   7.623  11.186 -1.7712 -0.6442 -0.1688
 2676SOL    HW2 9470   5.062   7.587  11.333  0.6167 -0.0208 -0.0293
 2677SOL     OW 9471   1.166   4.338   8.233  0.1557  0.6861 -0.0537
 2677SOL    HW1 9472   1.221   4.271   8.274  0.8301  1.6406  0.6473
 2677SOL    HW2 9473   1.228   4.400   8.195 -0.3972  2.0152  1.1292
 2678SOL     OW 9474   3.146   6.049   1.761  0.0434  0.0858  0.3988
 2678SOL    HW1 9475   3.154   5.962   1.801  0.6135 -0.5503 -0.9946
 2678SOL    HW2 9476   3.052   6.064   1.753 -0.0616 -0.8176 -0.1625
 2679SOL     OW 9477   1.190   1.007  10.180 -0.1061 -0.1004  0.8222
 2679SOL    HW1 9478   1.258   1.052  10.129 -1.0091 -0.7398 -1.0203
 2679SOL    HW2 9479   1.212   0.914  10.172 -1.3498 -0.3343 -0.0564
 2680SOL     OW 9480   0.727   0.111   6.694 -0.3043 -0.4220  0.2121
 2680SOL    HW1 9481   0.749   0.018   6.688 -1.1441 -0.5520 -1.4594
 2680SOL    HW2 9482   0.672   0.128   6.617 -1.4414  1.1145  1.2973
 2681SOL     OW 9483   6.949   4.890   2.776  0.3760 -0.3192  0.0545
 2681SOL    HW1 9484   6.976   4.812   2.727 -0.6782 -0.6651  0.0003
 2681SOL    HW2 9485   6.975   4.963   2.720  2.6049 -0.5359  0.7088
 2682SOL     OW 9486   2.041   3.936   1.037  0.2401 -0.5548  0.6415
 2682SOL    HW1 9487   2.058   3.971   1.124 -0.7398 -2.4497  1.6732
 2682SOL    HW2 9488   1.975   3.994   0.999  0.9311  0.4817  0.9959
 2683SOL     OW 9489   6.696   2.149   3.359  1.0637  0.5922 -0.6160
 2683SOL    HW1 9490   6.677   2.105   3.277  1.6330  0.5729 -0.7408
 2683SOL    HW2 9491   6.771   2.102   3.395  1.7683  1.5268 -0.8152
 2684SOL     OW 9492   5.115   3.423   7.071  0.4045  0.2926  0.2453
 2684SOL    HW1 9493   5.065   3.505   7.066 -0.8395 -0.4762 -0.7328
 2684SOL    HW2 9494   5.118   3.392   6.981 -0.2919 -1.3673  0.7538
 2685SOL     OW 9495   7.649   6.697   4.664 -0.0736 -0.1105 -0.3005
 2685SOL    HW1 9496   7.653   6.668   4.755  0.9465  1.1412  0.0807
 2685SOL    HW2 9497   7.625   6.618   4.615  0.6626 -1.1204  0.9025
 2686SOL     OW 9498   6.922   6.783   3.723 -0.1316  0.3690  0.2387
 2686SOL    HW1 9499   7.005   6.786   3.675 -0.4272  4.5355 -0.3524
 2686SOL    HW2 9500   6.947   6.782   3.815  0.5050 -0.2981  0.0717
 2687SOL     OW 9501   0.761   2.401  10.325 -0.0460  0.1766 -0.3638
 2687SOL    HW1 9502   0.847   2.435  10.348  0.4487 -1.7399  0.8654
 2687SOL    HW2 9503   0.738   2.343  10.398 -3.2748  2.1033  0.3802
 2688SOL     OW 9504   2.180   7.057   4.678  0.1300 -0.2460  0.5267
 2688SOL    HW1 9505   2.236   7.076   4.603 -0.6933 -0.4258 -0.1548
 2688SOL    HW2 9506   2.237   7.013   4.741  1.1261  0.9967  0.5312
 2689SOL     OW 9507   3.212   7.424   1.181  0.0728 -0.1247  0.1162
 2689SOL    HW1 9508   3.214   7.520   1.177 -1.2919 -0.0262  1.2054
 2689SOL    HW2 9509   3.136   7.403   1.235  0.8290 -1.8118  0.5983
 2690SOL     OW 9510   7.634   3.953  10.556 -0.6818 -0.7676  0.3310
 2690SOL    HW1 9511   7.542   3.968  10.534 -0.8322 -0.1095  1.3471
 2690SOL    HW2 9512   7.642   3.857  10.560 -0.7730 -0.9229 -1.8969
 2691SOL     OW 9513   3.132   5.371   0.298  0.2027  0.1227  0.0232
 2691SOL    HW1 9514   3.094   5.428   0.232 -0.0534 -0.6701 -0.5237
 2691SOL    HW2 9515   3.220   5.351   0.266  0.3533  0.3316  0.2948
 2692SOL     OW 9516   5.169   0.878  10.173 -0.4850 -0.0150 -0.2235
 2692SOL    HW1 9517   5.214   0.816  10.115 -1.8555  0.0073 -1.3900
 2692SOL    HW2 9518   5.105   0.825  10.220  1.0756 -0.1560  1.8780
 2693SOL     OW 9519   0.836   1.710   5.264  0.0922 -0.3043  0.3762
 2693SOL    HW1 9520   0.785   1.770   5.209  1.5927  0.6799 -0.0201
 2693SOL    HW2 9521   0.807   1.623   5.239 -0.1195  0.1746 -1.1358
 2694SOL     OW 9522   1.324   0.622   4.222  0.4134 -0.6851 -0.5881
 2694SOL    HW1 9523   1.245   0.606   4.274  0.7116 -1.0726 -0.2512
 2694SOL    HW2 9524   1.292   0.627   4.132 -0.2913  1.3009 -0.2776
 2695SOL     OW 9525   2.004   4.649   2.336  0.2318  0.1387  0.0715
 2695SOL    HW1 9526   1.916   4.611   2.341  0.3126 -0.2826 -1.2107
 2695SOL    HW2 9527   2.003   4.700   2.255  0.9820  0.6432  0.3663
 2696SOL     OW 9528   5.074   1.945   6.375 -0.5665  0.4579  0.6153
 2696SOL    HW1 9529   4.998   1.889   6.358  0.6337 -1.6004  1.6529
 2696SOL    HW2 9530   5.061   1.978   6.464  0.0302 -0.4380  1.0515
 2697SOL     OW 9531   1.603   0.888   2.343 -0.0953  0.7382 -0.6051
 2697SOL    HW1 9532   1.670   0.869   2.409 -1.9610  4.6975  2.9015
 2697SOL    HW2 9533   1.556   0.806   2.332  1.9528 -0.7573  0.9836
 2698SOL     OW 9534   4.444   0.950  11.767  0.1366  0.2420 -0.2058
 2698SOL    HW1 9535   4.422   0.858  11.757  1.3074  0.0294 -1.1108
 2698SOL    HW2 9536   4.457   0.982  11.677  1.0271  0.9293  0.1417
 2699SOL     OW 9537   6.296   7.475   2.932 -0.3100  0.2512 -0.0431
 2699SOL    HW1 9538   6.239   7.452   3.005  0.8524  2.3084  1.6330
 2699SOL    HW2 9539   6.246   7.540   2.882  0.4729  2.1000  1.4596
 2700SOL     OW 9540   4.093   5.895  11.080 -0.2276 -0.5974  0.4005
 2700SOL    HW1 9541   4.001   5.913  11.060 -0.5438 -0.8354  1.5682
 2700SOL    HW2 9542   4.127   5.854  11.001 -1.0451 -0.2342 -0.1585
 2701SOL     OW 9543   6.964   2.830   7.844  0.2665 -0.8161  0.1059
 2701SOL    HW1 9544   6.994   2.888   7.774 -0.9146  1.2673  1.2270
 2701SOL    HW2 9545   6.896   2.776   7.804 -0.8702  0.8166 -0.2301
 2702SOL     OW 9546   3.246   3.871   3.740  0.1825  0.0943 -0.7665
 2702SOL    HW1 9547   3.162   3.917   3.729 -0.1649 -0.5846 -1.0378
 2702SOL    HW2 9548   3.223   3.792   3.788  0.4823 -0.6476 -1.8330
 2703SOL     OW 9549   7.597   6.192   8.576 -0.6700 -0.2701  0.1889
 2703SOL    HW1 9550   7.590   6.256   8.646  0.5754  0.9046 -0.6966
 2703SOL    HW2 9551   7.651   6.122   8.613  0.2582  0.4973  0.3273
 2704SOL     OW 9552   3.893   0.202   2.214  0.6997 -0.0850  0.2572
 2704SOL    HW1 9553   3.960   0.171   2.154 -2.3703 -2.4421 -2.3700
 2704SOL    HW2 9554   3.903   0.148   2.292  0.9174 -1.6040 -0.7727
 2705SOL     OW 9555   1.582   5.413   0.980  0.0427  0.3996  0.6261
 2705SOL    HW1 9556   1.529   5.435   0.903 -2.0294 -1.0778  1.5181
 2705SOL    HW2 9557   1.544   5.465   1.050  0.8121  0.4809  0.9850
 2706SOL     OW 9558   1.077   7.404   1.068  0.4452 -0.3152 -0.2625
 2706SOL    HW1 9559   1.163   7.362   1.071 -0.2782 -1.8221  0.1935
 2706SOL    HW2 9560   1.053   7.402   0.975  0.0726 -1.6783 -0.1527
 2707SOL     OW 9561   0.585   1.515   3.968  0.3229 -0.1363 -0.1654
 2707SOL    HW1 9562   0.511   1.574   3.952  0.3128 -0.0954  0.0332
 2707SOL    HW2 9563   0.597   1.516   4.063  1.7315  1.2464 -0.3129
 2708SOL     OW 9564   3.515   2.304   3.546 -0.3896 -0.2532  0.0064
 2708SOL    HW1 9565   3.519   2.386   3.596 -0.1729 -0.4149  0.2572
 2708SOL    HW2 9566   3.512   2.236   3.613  1.7821 -0.5785 -0.1655
 2709SOL     OW 9567   1.240   5.175   2.132 -0.1696  0.2092 -0.5281
 2709SOL    HW1 9568   1.291   5.255   2.119  1.0527 -0.4154  0.2653
 2709SOL    HW2 9569   1.160   5.189   2.080 -1.1895  2.9798  1.5720
 2710SOL     OW 9570   4.234   2.416   8.678 -0.1963  0.4488 -0.2793
 2710SOL    HW1 9571   4.237   2.321   8.692  1.1827  0.3790 -0.8690
 2710SOL    HW2 9572   4.148   2.432   8.640  0.0581 -0.7823 -1.4533
 2711SOL     OW 9573   3.878   4.374   3.011  0.1458 -0.4308 -0.0285
 2711SOL    HW1 9574   3.918   4.459   2.997 -0.6177  0.0238  0.4938
 2711SOL    HW2 9575   3.898   4.325   2.931  2.0689 -0.3759  0.3798
 2712SOL     OW 9576   5.709   7.428  12.259 -0.2055  0.2842  0.7890
 2712SOL    HW1 9577   5.790   7.380  12.243  0.7515  1.7155  1.1310
 2712SOL    HW2 9578   5.709   7.446  12.353 -0.6544  0.7530  0.7079
 2713SOL     OW 9579   4.458   5.962   2.075  0.1735 -0.1702  0.0056
 2713SOL    HW1 9580   4.383   6.011   2.041 -0.0341 -1.5742 -1.6815
 2713SOL    HW2 9581   4.492   6.017   2.146 -2.2742  0.6103  0.6609
 2714SOL     OW 9582   7.160   5.563   7.198 -0.0102  0.0834 -0.3959
 2714SOL    HW1 9583   7.243   5.535   7.235 -0.7967 -2.1883 -0.2162
 2714SOL    HW2 9584   7.161   5.531   7.108 -0.4574  0.5593 -0.5795
 2715SOL     OW 9585   6.346   7.847   8.415  0.0665  0.0821 -0.0503
 2715SOL    HW1 9586   6.392   7.890   8.343 -0.0935  0.9371  0.3408
 2715SOL    HW2 9587   6.259   7.829   8.381 -0.5664  1.9868  0.4077
 2716SOL     OW 9588   7.481   4.815   4.364  0.0516  0.2260 -0.1830
 2716SOL    HW1 9589   7.440   4.728   4.365  1.5979 -0.6286 -2.4448
 2716SOL    HW2 9590   7.420   4.869   4.314 -1.5336  0.8913  2.2824
 2717SOL     OW 9591   1.282   3.063   1.819  0.0202 -1.0909  0.2168
 2717SOL    HW1 9592   1.195   3.043   1.853 -0.4138  3.2968  2.4351
 2717SOL    HW2 9593   1.269   3.083   1.727 -1.8813  1.2863  0.8797
 2718SOL     OW 9594   3.258   4.160  10.473 -0.5169  0.0671  0.0847
 2718SOL    HW1 9595   3.331   4.184  10.531 -1.6780 -0.7978  1.9932
 2718SOL    HW2 9596   3.234   4.071  10.501 -0.5234 -0.7875 -2.4087
 2719SOL     OW 9597   2.424   2.440   6.266 -0.2951 -0.5095  0.0672
 2719SOL    HW1 9598   2.388   2.473   6.349 -1.9965  1.2903 -1.2918
 2719SOL    HW2 9599   2.515   2.471   6.267 -0.1583 -0.8779  1.4270
 2720SOL     OW 9600   1.463   0.132   1.514 -0.1727  0.0148  0.2566
 2720SOL    HW1 9601   1.452   0.077   1.592 -1.3285 -0.3276 -0.1356
 2720SOL    HW2 9602   1.399   0.100   1.452 -0.1233  1.1059 -0.3940
 2721SOL     OW 9603   6.118   4.044   1.816 -0.1685  0.2087 -0.5135
 2721SOL    HW1 9604   6.112   3.988   1.893  2.5316  0.8401  0.2521
 2721SOL    HW2 9605   6.108   4.133   1.850  0.7945  0.4806 -0.9202
 2722SOL     OW 9606   6.053   7.032   8.489  0.0235  0.0876 -0.1280
 2722SOL    HW1 9607   6.128   7.090   8.478  0.1154 -0.1113 -0.5823
 2722SOL    HW2 9608   6.044   6.988   8.405 -0.3002 -0.2533  0.0785
 2723SOL     OW 9609   6.843   6.791   2.826  0.4042 -0.3097 -0.3536
 2723SOL    HW1 9610   6.863   6.750   2.742  0.7659 -0.0359 -0.4039
 2723SOL    HW2 9611   6.879   6.731   2.891 -1.1322 -1.2585 -0.3130
 2724SOL     OW 9612   0.691   1.859   8.667  0.6051  0.4615 -0.4504
 2724SOL    HW1 9613   0.689   1.832   8.575 -0.5949 -0.0746 -0.2897
 2724SOL    HW2 9614   0.663   1.782   8.715  1.0216  0.8065  0.3595
 2725SOL     OW 9615   3.226   3.481   4.821  0.5223 -0.0177  0.0823
 2725SOL    HW1 9616   3.170   3.558   4.813 -0.3895 -0.6475  0.1833
 2725SOL    HW2 9617   3.194   3.437   4.900  1.7068  0.0327  0.6060
 2726SOL     OW 9618   7.590   0.974  11.639  0.3371  0.2551  0.1216
 2726SOL    HW1 9619   7.603   1.067  11.659 -1.1886  0.2781  1.2280
 2726SOL    HW2 9620   7.499   0.969  11.607  0.2997 -0.8948  0.3627
 2727SOL     OW 9621   4.574   4.013  12.361 -0.1287 -0.4839 -0.4584
 2727SOL    HW1 9622   4.504   4.072  12.388 -0.4687 -0.5883 -1.1005
 2727SOL    HW2 9623   4.529   3.936  12.327  0.2974 -1.3894  0.9017
 2728SOL     OW 9624   3.021   2.433   5.455  0.1208 -0.4825  0.1912
 2728SOL    HW1 9625   3.002   2.522   5.425 -0.3337 -0.0527  1.6969
 2728SOL    HW2 9626   3.098   2.407   5.404  1.6418  1.6256  1.2869
 2729SOL     OW 9627   2.097   5.102   5.359 -0.5177 -0.3514  0.1458
 2729SOL    HW1 9628   2.098   5.140   5.271 -0.1777  0.1479  0.3573
 2729SOL    HW2 9629   2.182   5.058   5.366  0.2060  1.0752  0.8313
 2730SOL     OW 9630   0.352   1.590  10.768 -0.2019 -0.2271  0.2758
 2730SOL    HW1 9631   0.368   1.668  10.821  1.0851 -0.1210 -0.2216
 2730SOL    HW2 9632   0.289   1.539  10.819 -0.8964  1.0290  0.7090
 2731SOL     OW 9633   2.216   4.743  10.184 -0.4707 -0.0588 -0.4777
 2731SOL    HW1 9634   2.161   4.688  10.240 -0.9741 -0.2691 -1.1600
 2731SOL    HW2 9635   2.167   4.750  10.102  0.4256 -0.0615 -1.0291
 2732SOL     OW 9636   4.990   4.533  11.486 -0.8803 -0.0395 -0.0164
 2732SOL    HW1 9637   4.926   4.486  11.432 -0.6580  0.3634 -0.6296
 2732SOL    HW2 9638   5.047   4.464  11.520 -2.3274 -0.5693  1.5136
 2733SOL     OW 9639   6.994   2.332   0.028 -0.2804  0.0044 -0.4370
 2733SOL    HW1 9640   6.953   2.303   0.109 -0.5904 -1.6677 -1.1385
 2733SOL    HW2 9641   6.953   2.279  -0.040 -0.8221  2.1138 -1.8582
 2734SOL     OW 9642   0.084   7.240   3.615  0.3259 -0.3862 -0.0002
 2734SOL    HW1 9643   0.051   7.304   3.552  0.3893 -1.3078 -1.0013
 2734SOL    HW2 9644   0.109   7.292   3.691 -0.7164  0.6440 -0.3377
 2735SOL     OW 9645   2.273   4.652   3.321  0.6840 -0.5611 -0.5550
 2735SOL    HW1 9646   2.359   4.613   3.338  1.7289  1.2788 -1.3392
 2735SOL    HW2 9647   2.289   4.716   3.252 -1.1302  0.5255 -0.0365
 2736SOL     OW 9648   4.193   4.154   8.566 -0.5696 -0.4005 -0.0836
 2736SOL    HW1 9649   4.112   4.203   8.554  0.0659  0.5807 -0.4698
 2736SOL    HW2 9650   4.190   4.126   8.657 -1.3423 -0.3966 -0.0949
 2737SOL     OW 9651   4.226   1.157   5.803 -0.5497 -0.1372  0.4186
 2737SOL    HW1 9652   4.243   1.121   5.716 -1.6663  0.1587  0.0560
 2737SOL    HW2 9653   4.302   1.131   5.855  0.1856 -0.2308 -0.6661
 2738SOL     OW 9654   7.784   5.492   7.807 -0.2838  0.2229 -0.5251
 2738SOL    HW1 9655   7.762   5.584   7.822 -0.7833  0.0746 -0.3115
 2738SOL    HW2 9656   7.706   5.444   7.836  0.6707 -0.3897  1.1815
 2739SOL     OW 9657   1.007   3.679  10.851 -0.2949  0.5218  0.2949
 2739SOL    HW1 9658   0.913   3.684  10.872 -0.7804  0.4254 -1.6498
 2739SOL    HW2 9659   1.016   3.731  10.770  0.8833 -1.3456 -0.8508
 2740SOL     OW 9660   2.773   7.002   5.579  0.4868 -0.5405  0.3168
 2740SOL    HW1 9661   2.785   7.069   5.512  1.1310 -0.6413  0.3272
 2740SOL    HW2 9662   2.825   7.033   5.654 -0.6751 -0.1405  0.9935
 2741SOL     OW 9663   5.992   6.896   8.702  0.2423  0.3636 -0.4116
 2741SOL    HW1 9664   6.023   6.924   8.616  0.3539  0.3221 -0.3851
 2741SOL    HW2 9665   5.950   6.974   8.739  1.4338  0.8021  0.0731
 2742SOL     OW 9666   1.444   3.382   8.250  0.4015 -0.4234 -0.3889
 2742SOL    HW1 9667   1.407   3.381   8.162  0.3746 -1.4838 -0.3801
 2742SOL    HW2 9668   1.506   3.310   8.251  0.1223 -0.6684  0.5729
 2743SOL     OW 9669   2.678   6.329   6.613  0.0921  0.2518 -0.0787
 2743SOL    HW1 9670   2.705   6.290   6.696 -0.5186  0.1194  0.0669
 2743SOL    HW2 9671   2.652   6.418   6.635 -0.6508  0.0319 -0.0042
 2744SOL     OW 9672   6.380   1.935  10.134 -0.0326 -0.2425  0.2303
 2744SOL    HW1 9673   6.406   2.026  10.152  0.6357  0.0071 -1.6596
 2744SOL    HW2 9674   6.430   1.883  10.197 -1.0111  0.7179  1.8647
 2745SOL     OW 9675   4.881   1.806   9.592  0.2536  0.1006 -0.4787
 2745SOL    HW1 9676   4.887   1.898   9.567 -0.2450  0.3358  0.2301
 2745SOL    HW2 9677   4.932   1.800   9.673  1.8252 -0.6376 -1.4920
 2746SOL     OW 9678   2.511   1.234  10.931  0.0460  0.3284 -0.7269
 2746SOL    HW1 9679   2.524   1.323  10.963 -2.0615  1.0152 -1.6251
 2746SOL    HW2 9680   2.426   1.207  10.966  0.7500 -1.4433 -0.2744
 2747SOL     OW 9681   1.485   3.692   6.044 -0.2593  0.0430 -0.2811
 2747SOL    HW1 9682   1.430   3.690   5.966 -1.0341 -0.0391  0.2638
 2747SOL    HW2 9683   1.561   3.745   6.018 -1.7447  2.3047 -0.2916
 2748SOL     OW 9684   5.733   2.917   4.124 -0.1502 -0.1766  0.0371
 2748SOL    HW1 9685   5.762   2.933   4.214 -2.8082  3.2903  0.4446
 2748SOL    HW2 9686   5.644   2.884   4.132 -0.7123  0.9147 -1.3199
 2749SOL     OW 9687   7.977   4.928   8.587  0.3109 -0.3063  0.0772
 2749SOL    HW1 9688   8.014   4.894   8.505  1.6958  1.3901 -0.0633
 2749SOL    HW2 9689   7.991   4.857   8.650  1.0794 -0.8685 -0.6919
 2750SOL     OW 9690   6.998   6.351   5.635  0.3861  0.8552 -0.5325
 2750SOL    HW1 9691   6.911   6.373   5.601 -0.8076  0.3789  1.9579
 2750SOL    HW2 9692   7.001   6.255   5.634 -0.0098  0.7872  1.2877
 2751SOL     OW 9693   0.659   6.058   0.432 -0.5880 -0.4611  0.5348
 2751SOL    HW1 9694   0.601   6.092   0.364  1.3531  2.3281  0.0971
 2751SOL    HW2 9695   0.601   6.028   0.501 -2.5700 -1.1440 -1.3236
 2752SOL     OW 9696   0.250   2.152   7.767 -0.0042  0.2041  0.6981
 2752SOL    HW1 9697   0.215   2.165   7.855 -0.4387  1.2015  0.3975
 2752SOL    HW2 9698   0.226   2.232   7.720  3.0682  1.1853  0.5859
 2753SOL     OW 9699   1.640   1.811  12.255 -0.4357  0.2315  0.1279
 2753SOL    HW1 9700   1.654   1.790  12.347  0.9989 -0.9121 -0.3040
 2753SOL    HW2 9701   1.682   1.896  12.243 -0.0793  0.0937  0.3893
 2754SOL     OW 9702   6.831   7.526   7.555 -0.3489  0.1880  0.4421
 2754SOL    HW1 9703   6.830   7.584   7.631  1.9470  1.5294 -0.4515
 2754SOL    HW2 9704   6.760   7.558   7.499  0.8273  2.1668  0.0094
 2755SOL     OW 9705   7.144   1.018   8.460  0.5743 -0.0192 -0.3802
 2755SOL    HW1 9706   7.221   1.062   8.423  0.1658  0.6839 -0.4108
 2755SOL    HW2 9707   7.180   0.951   8.518  1.2110  0.0865 -0.6436
 2756SOL     OW 9708   3.484   2.078   8.647 -0.4613 -0.3024 -0.8718
 2756SOL    HW1 9709   3.547   2.022   8.601  1.2282  1.9808 -1.4966
 2756SOL    HW2 9710   3.419   2.100   8.581 -0.6260 -0.7913 -0.8740
 2757SOL     OW 9711   0.181   1.675   6.728 -0.0076  0.1698  0.0938
 2757SOL    HW1 9712   0.196   1.660   6.635  1.9407  1.8754  0.0649
 2757SOL    HW2 9713   0.092   1.644   6.744 -0.5161  0.1924 -2.4066
 2758SOL     OW 9714   5.279   2.971  10.970 -0.2017  0.2221  0.4153
 2758SOL    HW1 9715   5.299   3.058  11.004  2.3231 -1.1209  2.7594
 2758SOL    HW2 9716   5.354   2.949  10.915 -1.7653  0.2263 -1.8575
 2759SOL     OW 9717   2.243   6.709  10.696 -0.3073  0.6566  0.3462
 2759SOL    HW1 9718   2.223   6.767  10.622  1.9085  2.1081  0.7952
 2759SOL    HW2 9719   2.300   6.642  10.659 -1.0697  0.0092  0.3026
 2760SOL     OW 9720   0.830   6.455   0.537  0.0007 -0.2104 -0.4407
 2760SOL    HW1 9721   0.845   6.405   0.618 -0.9962  0.1880  0.0109
 2760SOL    HW2 9722   0.825   6.546   0.566  0.0485 -0.0251 -1.0125
 2761SOL     OW 9723   3.862   7.869   7.716 -0.8631  0.5822  0.2868
 2761SOL    HW1 9724   3.813   7.838   7.640  2.8932  1.8329 -2.9521
 2761SOL    HW2 9725   3.811   7.944   7.748 -1.8248  0.9887 -1.9920
 2762SOL     OW 9726   5.282   6.169   6.210  0.3781  0.0186  0.3232
 2762SOL    HW1 9727   5.361   6.123   6.182 -1.4515 -2.9425 -0.4874
 2762SOL    HW2 9728   5.257   6.126   6.291 -0.8645  0.2368  0.0830
 2763SOL     OW 9729   2.083   7.011   6.365  0.0665  0.7462  0.5860
 2763SOL    HW1 9730   2.034   6.931   6.386 -0.8786  1.5547  1.5465
 2763SOL    HW2 9731   2.168   6.979   6.336 -0.8997 -0.7077 -0.9126
 2764SOL     OW 9732   7.612   5.804   9.895 -0.3187 -0.1340  0.2840
 2764SOL    HW1 9733   7.540   5.837   9.948  1.1421  3.8294  0.1465
 2764SOL    HW2 9734   7.595   5.837   9.807  0.2967 -1.5109 -0.3821
 2765SOL     OW 9735   1.481   4.910   7.008 -0.0855  0.8381  0.8136
 2765SOL    HW1 9736   1.488   4.850   7.082 -1.0191  1.4761  1.4362
 2765SOL    HW2 9737   1.398   4.885   6.966  0.1681  0.8451  0.3077
 2766SOL     OW 9738   5.976   4.867  11.450 -0.5351  0.6556 -0.0563
 2766SOL    HW1 9739   5.908   4.921  11.490  0.1676  1.9567 -0.5608
 2766SOL    HW2 9740   5.933   4.784  11.432 -1.1069  0.2804  2.6443
 2767SOL     OW 9741   4.476   6.832  10.391  0.7938 -0.6064 -0.1292
 2767SOL    HW1 9742   4.388   6.854  10.360  0.7189 -0.2964  0.2909
 2767SOL    HW2 9743   4.483   6.737  10.380  1.3282 -0.3676 -2.5353
 2768SOL     OW 9744   1.138   2.465   0.418 -0.2863 -0.0493 -0.2351
 2768SOL    HW1 9745   1.210   2.522   0.445 -1.2857  0.4843  1.4482
 2768SOL    HW2 9746   1.143   2.390   0.476  1.5725 -2.2838 -3.0184
 2769SOL     OW 9747   7.902   7.029   3.614  0.0538  0.1945 -0.0347
 2769SOL    HW1 9748   7.914   6.967   3.685 -0.1204 -1.4749 -1.3852
 2769SOL    HW2 9749   7.980   7.084   3.616 -0.2247  0.5609  1.7738
 2770SOL     OW 9750   6.230   3.432   2.269 -0.6445 -0.0907 -0.2546
 2770SOL    HW1 9751   6.320   3.420   2.240 -0.9308 -0.4781 -1.0100
 2770SOL    HW2 9752   6.192   3.344   2.269 -1.5133  0.2374 -1.6518
 2771SOL     OW 9753   3.098   5.850   4.072  0.0793 -0.1181 -0.6372
 2771SOL    HW1 9754   3.153   5.792   4.125  0.3282  0.5655 -0.1287
 2771SOL    HW2 9755   3.118   5.938   4.104 -0.3361  0.2494 -1.3528
 2772SOL     OW 9756   2.681   6.931   0.435  0.7276 -0.7064  0.2066
 2772SOL    HW1 9757   2.664   6.963   0.347  0.6632  0.9812  0.7949
 2772SOL    HW2 9758   2.762   6.976   0.461  0.0600 -0.1755  1.4576
 2773SOL     OW 9759   7.279   5.976   6.203  0.1732  0.2985 -0.0123
 2773SOL    HW1 9760   7.265   6.007   6.293 -1.0998  1.7401 -0.6588
 2773SOL    HW2 9761   7.365   6.010   6.179  0.8052 -0.6328  0.8481
 2774SOL     OW 9762   0.146   0.142   7.900 -0.4295 -0.4168 -0.1642
 2774SOL    HW1 9763   0.155   0.158   7.806  1.4453 -4.9617 -1.0543
 2774SOL    HW2 9764   0.057   0.106   7.909 -0.4524 -0.3975 -0.3032
 2775SOL     OW 9765   1.057   0.266   7.173  0.4358  0.2335  0.4070
 2775SOL    HW1 9766   1.001   0.297   7.102  1.3728 -1.4187 -1.1522
 2775SOL    HW2 9767   1.012   0.189   7.208  0.0508  0.9546  1.5521
 2776SOL     OW 9768   5.854   7.129   9.615  0.1719 -0.0110 -0.3332
 2776SOL    HW1 9769   5.815   7.216   9.606  0.9350  0.6012  1.6283
 2776SOL    HW2 9770   5.784   7.068   9.588 -1.0896  1.1342  0.2253
 2777SOL     OW 9771   6.707   5.706   7.212 -0.3828  0.4311 -0.3493
 2777SOL    HW1 9772   6.635   5.684   7.271  0.9088 -0.9453  0.8238
 2777SOL    HW2 9773   6.762   5.627   7.212  0.7926  1.2046 -1.6955
 2778SOL     OW 9774   4.397   2.561   2.784 -0.6999 -0.7398 -0.3117
 2778SOL    HW1 9775   4.408   2.504   2.709 -1.0240 -0.5630 -0.4980
 2778SOL    HW2 9776   4.483   2.600   2.798 -0.2044 -2.0510  0.4679
 2779SOL     OW 9777   4.132   0.244   6.416  0.9503  0.0888 -0.3332
 2779SOL    HW1 9778   4.113   0.331   6.452 -1.1174 -0.6840  0.6202
 2779SOL    HW2 9779   4.054   0.192   6.437  1.0308 -1.3465 -3.0858
 2780SOL     OW 9780   4.950   1.021   4.763 -0.0997 -0.3023 -0.2380
 2780SOL    HW1 9781   4.916   0.952   4.706 -0.7048 -0.6832  0.5560
 2780SOL    HW2 9782   4.872   1.071   4.788  0.0425 -0.5947  0.8376
 2781SOL     OW 9783   1.710   6.215  10.904 -0.5635  0.5555  0.8568
 2781SOL    HW1 9784   1.624   6.190  10.870  0.4605 -0.9564 -0.8090
 2781SOL    HW2 9785   1.756   6.132  10.917  0.5183  1.3050  2.1288
 2782SOL     OW 9786   3.960   7.406  10.084 -0.2435 -0.3354  0.5840
 2782SOL    HW1 9787   3.900   7.481  10.088  0.6246  0.3987  0.1610
 2782SOL    HW2 9788   3.921   7.347  10.020 -0.1266  0.5004 -0.2758
 2783SOL     OW 9789   2.647   6.262   8.255 -0.0345 -0.1959  0.2100
 2783SOL    HW1 9790   2.684   6.174   8.250 -0.9306 -0.6214  0.6468
 2783SOL    HW2 9791   2.722   6.321   8.252  0.5031 -0.9156 -1.3372
 2784SOL     OW 9792   7.023   3.177   0.674 -0.1744 -0.0319 -0.4304
 2784SOL    HW1 9793   6.935   3.164   0.639 -0.7110  1.5337  0.2002
 2784SOL    HW2 9794   7.025   3.125   0.755  0.1339 -1.4871 -1.3370
 2785SOL     OW 9795   3.322   3.918   1.957 -0.7673 -0.2604 -0.3265
 2785SOL    HW1 9796   3.275   3.871   1.888 -1.6970 -0.1170  0.1923
 2785SOL    HW2 9797   3.390   3.967   1.911 -0.1795 -1.6098 -0.9471
 2786SOL     OW 9798   3.208   1.969  12.422  0.0106 -0.3629  0.8922
 2786SOL    HW1 9799   3.144   2.033  12.455  2.1125  1.9517  0.7713
 2786SOL    HW2 9800   3.249   1.934  12.501 -0.8043 -1.2605  0.9395
 2787SOL     OW 9801   2.774   6.933   7.186  0.5830 -0.1220  0.1276
 2787SOL    HW1 9802   2.818   6.860   7.142 -0.0502 -0.6125  0.2930
 2787SOL    HW2 9803   2.827   7.010   7.163 -0.2027 -0.2081 -2.2635
 2788SOL     OW 9804   5.807   5.239   7.124  0.3266  0.1251  0.6192
 2788SOL    HW1 9805   5.741   5.265   7.189 -1.1964 -0.8213 -0.4727
 2788SOL    HW2 9806   5.790   5.146   7.109  0.2537  0.4313 -1.5323
 2789SOL     OW 9807   6.351   5.532  11.511  0.0748  0.5222  0.0770
 2789SOL    HW1 9808   6.400   5.612  11.497  0.7089  0.0637 -0.3942
 2789SOL    HW2 9809   6.316   5.510  11.425 -0.6215  0.6261  0.3286
 2790SOL     OW 9810   0.035   1.150  10.050 -0.2370 -0.3155 -0.1750
 2790SOL    HW1 9811  -0.022   1.138  10.126  0.9827 -0.2075  0.7794
 2790SOL    HW2 9812   0.110   1.094  10.066  0.5924  0.5937 -0.7247
 2791SOL     OW 9813   2.573   2.655   5.093 -0.1259 -0.1525 -0.2813
 2791SOL    HW1 9814   2.581   2.691   5.181  0.9933 -1.4380  0.1888
 2791SOL    HW2 9815   2.484   2.677   5.065  0.3568  2.5534  0.0995
 2792SOL     OW 9816   3.839   2.595   0.990 -0.5124  0.0710  0.1745
 2792SOL    HW1 9817   3.900   2.548   1.047 -3.2947 -0.6652  2.8315
 2792SOL    HW2 9818   3.875   2.584   0.902  3.4878  0.3641  1.5741
 2793SOL     OW 9819   3.819   4.226   4.313  0.1714 -0.1545  0.5152
 2793SOL    HW1 9820   3.795   4.156   4.253  1.2480  0.7065 -0.9974
 2793SOL    HW2 9821   3.913   4.216   4.326 -0.0361 -0.3100  2.0897
 2794SOL     OW 9822   3.194   5.161   2.626 -0.2373  0.3839  0.0753
 2794SOL    HW1 9823   3.111   5.143   2.581 -0.6562  1.2544  0.4594
 2794SOL    HW2 9824   3.182   5.249   2.663  0.9791  0.6533 -0.1309
 2795SOL     OW 9825   3.591   6.174  12.021  0.0736 -0.0434  0.4844
 2795SOL    HW1 9826   3.562   6.083  12.012 -0.0791 -0.1340  1.7696
 2795SOL    HW2 9827   3.523   6.225  11.977  0.5114 -0.5771 -0.8665
 2796SOL     OW 9828   0.235   2.551   3.099  0.0625  0.1347  0.0918
 2796SOL    HW1 9829   0.260   2.474   3.048 -1.1281 -0.1712 -0.0612
 2796SOL    HW2 9830   0.294   2.620   3.070  0.9351 -0.6355 -0.0042
 2797SOL     OW 9831   6.791   5.262   8.133  0.3130 -0.1723  0.6491
 2797SOL    HW1 9832   6.782   5.185   8.188 -2.1175 -1.6013 -1.4924
 2797SOL    HW2 9833   6.702   5.297   8.126  0.3023 -0.4781 -2.7535
 2798SOL     OW 9834   6.770   2.949  10.538 -0.1904  0.0299  0.6435
 2798SOL    HW1 9835   6.825   2.874  10.517  0.8700  0.6530  1.1057
 2798SOL    HW2 9836   6.785   2.965  10.632 -1.7611 -0.2576  0.9794
 2799SOL     OW 9837   2.149   4.868   9.935  0.0778 -0.2977  0.1292
 2799SOL    HW1 9838   2.204   4.799   9.898 -0.6517 -0.7563 -0.1306
 2799SOL    HW2 9839   2.069   4.866   9.882  0.7091  1.9213 -1.0163
 2800SOL     OW 9840   6.241   4.248  10.037 -0.0755  0.3817  0.2957
 2800SOL    HW1 9841   6.169   4.306  10.010  0.5178  0.8698 -0.2740
 2800SOL    HW2 9842   6.319   4.303  10.032  0.1666  0.2829  2.3631
 2801SOL     OW 9843   6.201   3.932   8.095 -0.3370  0.4659  0.4860
 2801SOL    HW1 9844   6.287   3.902   8.123  0.4668  1.0992 -1.1973
 2801SOL    HW2 9845   6.151   3.852   8.080  0.1135  0.0861  0.9927
 2802SOL     OW 9846   2.907   4.750   2.524  0.2031  0.5922  0.1321
 2802SOL    HW1 9847   2.959   4.733   2.446 -0.0286 -0.8702  0.2698
 2802SOL    HW2 9848   2.968   4.735   2.597  0.2864  1.4700  0.2539
 2803SOL     OW 9849   4.896   3.151   7.743  0.1612 -0.0621 -0.2717
 2803SOL    HW1 9850   4.928   3.229   7.697 -1.4230  0.3356 -0.7407
 2803SOL    HW2 9851   4.976   3.110   7.778  0.8654  3.1723  2.3079
 2804SOL     OW 9852   5.842   7.887   3.427 -0.3806  0.0041 -0.2498
 2804SOL    HW1 9853   5.937   7.877   3.427 -0.4446 -0.8341 -1.7694
 2804SOL    HW2 9854   5.823   7.943   3.353 -1.1471 -0.9191 -0.7850
 2805SOL     OW 9855   4.718   7.659   4.390  0.5116 -0.2555  0.1042
 2805SOL    HW1 9856   4.754   7.703   4.313 -0.0170 -1.0941 -0.6437
 2805SOL    HW2 9857   4.708   7.728   4.455 -1.9895  1.1641 -1.6163
 2806SOL     OW 9858   2.116   6.448   3.583  0.3303  0.9174  0.2573
 2806SOL    HW1 9859   2.123   6.529   3.532  2.9725  1.1921  0.8726
 2806SOL    HW2 9860   2.202   6.407   3.572 -0.9278 -1.8626 -0.0461
 2807SOL     OW 9861   5.715   6.884   0.600  0.1449  0.3570  0.9490
 2807SOL    HW1 9862   5.756   6.880   0.686  1.2777 -0.3683  0.4020
 2807SOL    HW2 9863   5.771   6.830   0.544 -0.7044  0.6104 -0.1885
 2808SOL     OW 9864   6.574   6.470  11.648  0.5422 -0.4060  0.0822
 2808SOL    HW1 9865   6.579   6.400  11.583 -3.3204  0.6162 -1.5999
 2808SOL    HW2 9866   6.520   6.434  11.718  0.0878  0.2934  0.1000
 2809SOL     OW 9867   5.515   1.175   7.443 -0.1288 -0.2915 -0.0938
 2809SOL    HW1 9868   5.493   1.092   7.486 -2.7032  0.4349  0.1531
 2809SOL    HW2 9869   5.463   1.241   7.489 -0.1501  1.0677 -1.9419
 2810SOL     OW 9870   6.646   3.402   4.794  0.1142  0.2439  0.0690
 2810SOL    HW1 9871   6.552   3.417   4.785  0.1762  0.5588 -0.0479
 2810SOL    HW2 9872   6.676   3.470   4.854  0.6089  1.3732 -1.4114
 2811SOL     OW 9873   5.399   1.097   9.939 -0.1717  0.2758  0.8023
 2811SOL    HW1 9874   5.352   1.122  10.019 -1.0229  1.1156  0.0749
 2811SOL    HW2 9875   5.393   1.174   9.882 -0.8575 -0.7735 -0.6286
 2812SOL     OW 9876   4.481   4.628   6.173 -0.3082  0.3447  0.3935
 2812SOL    HW1 9877   4.533   4.638   6.253 -0.4969  0.5742  0.4874
 2812SOL    HW2 9878   4.543   4.643   6.102  0.0157 -0.5370  0.4796
 2813SOL     OW 9879   5.664   3.161   8.205  0.4795 -0.0392 -0.1458
 2813SOL    HW1 9880   5.619   3.244   8.225 -0.1500 -0.9103  2.4738
 2813SOL    HW2 9881   5.607   3.117   8.143 -0.0394  0.7633 -0.2586
 2814SOL     OW 9882   4.659   5.959  11.481 -0.0364  0.0529 -0.0789
 2814SOL    HW1 9883   4.706   6.006  11.412 -0.5844  0.4720 -0.1807
 2814SOL    HW2 9884   4.591   5.910  11.435  0.4936 -0.8066  0.0351
 2815SOL     OW 9885   2.525   5.001  11.810  0.3297 -0.1826 -0.0523
 2815SOL    HW1 9886   2.512   5.048  11.727  0.6394 -0.2000 -0.1160
 2815SOL    HW2 9887   2.518   4.909  11.786 -1.1181 -0.1566  0.2278
 2816SOL     OW 9888   2.199   1.871  11.014  0.0164  0.4415  0.9597
 2816SOL    HW1 9889   2.252   1.911  11.083  1.9470  1.4288 -0.9699
 2816SOL    HW2 9890   2.120   1.925  11.012  1.0463  2.0315  0.7589
 2817SOL     OW 9891   2.009   2.651   9.947 -0.5901  0.4234 -0.1875
 2817SOL    HW1 9892   2.095   2.632   9.983 -0.4136 -1.7298 -1.5522
 2817SOL    HW2 9893   1.997   2.586   9.878 -3.1016  0.9903 -0.3911
 2818SOL     OW 9894   4.536   6.628   2.272  1.1583  0.0879 -0.6835
 2818SOL    HW1 9895   4.623   6.660   2.297  0.6916 -0.0573  1.2720
 2818SOL    HW2 9896   4.483   6.706   2.260  1.1135  0.1557 -0.0897
 2819SOL     OW 9897   6.187   0.849   1.387  0.2968 -0.0606 -0.1358
 2819SOL    HW1 9898   6.202   0.914   1.456  0.5136 -0.1209 -0.1260
 2819SOL    HW2 9899   6.244   0.877   1.315  2.2611 -1.5804  0.7242
 2820SOL     OW 9900   0.050   5.858   6.035 -0.1764  0.6010  0.3619
 2820SOL    HW1 9901   0.016   5.912   6.106  0.2052  0.7650  0.4212
 2820SOL    HW2 9902   0.103   5.791   6.079  1.0588  1.4149  0.1832
 2821SOL     OW 9903   0.208   4.407   4.666 -0.2538  0.2040  0.7094
 2821SOL    HW1 9904   0.264   4.481   4.688 -0.1604 -0.0939  1.4870
 2821SOL    HW2 9905   0.221   4.394   4.572 -1.0333  1.7995  0.3599
 2822SOL     OW 9906   5.144   3.298  12.186 -0.2328  0.4676  0.0930
 2822SOL    HW1 9907   5.175   3.208  12.192  1.3969  1.0666  1.4011
 2822SOL    HW2 9908   5.090   3.311  12.264  1.3206  1.2281  1.0808
 2823SOL     OW 9909   7.074   3.391   1.472  0.2748 -0.0138 -0.2896
 2823SOL    HW1 9910   7.004   3.327   1.488  1.0533 -0.5265  1.1756
 2823SOL    HW2 9911   7.110   3.364   1.387 -1.2075  0.2019 -1.0325
 2824SOL     OW 9912   2.994   7.829   4.383 -0.2857 -0.2019 -0.1481
 2824SOL    HW1 9913   2.978   7.773   4.308 -0.3598 -0.3064 -0.0543
 2824SOL    HW2 9914   3.089   7.845   4.381 -0.1211 -1.0432  0.3244
 2825SOL     OW 9915   7.923   7.803   5.298 -0.0049 -0.0356 -0.0789
 2825SOL    HW1 9916   7.838   7.775   5.264 -0.8655  1.2762  0.9276
 2825SOL    HW2 9917   7.967   7.843   5.222  0.3976 -2.1112 -0.9986
 2826SOL     OW 9918   4.025   1.677  10.111 -0.2716  0.4683 -0.1020
 2826SOL    HW1 9919   4.034   1.656  10.204 -0.4104 -0.1988 -0.2281
 2826SOL    HW2 9920   4.084   1.751  10.097  1.5494 -0.8593  0.0545
 2827SOL     OW 9921   0.342   5.804  11.826  0.9169  0.7663  0.1022
 2827SOL    HW1 9922   0.428   5.843  11.812  1.6665 -0.1209  1.9503
 2827SOL    HW2 9923   0.345   5.769  11.915 -0.9791 -0.2812 -0.1830
 2828SOL     OW 9924   6.070   0.540   3.465 -0.4448  0.2713  0.2973
 2828SOL    HW1 9925   6.047   0.587   3.545  2.7765  0.6372  1.1568
 2828SOL    HW2 9926   6.084   0.450   3.493  1.8193  0.6233  0.4821
 2829SOL     OW 9927   5.984   3.285  10.317  0.0687 -0.3964 -0.4434
 2829SOL    HW1 9928   6.009   3.374  10.342 -0.6409  0.0120 -1.1413
 2829SOL    HW2 9929   6.047   3.261  10.249  0.4271 -0.5292 -0.0637
 2830SOL     OW 9930   7.453   7.749   0.654  0.0246  0.1983 -0.4869
 2830SOL    HW1 9931   7.383   7.814   0.648 -1.2632 -1.0051  0.7224
 2830SOL    HW2 9932   7.484   7.756   0.744 -0.8076 -1.4640 -0.0255
 2831SOL     OW 9933   3.630   5.177   2.918 -0.2501 -0.2706  0.2561
 2831SOL    HW1 9934   3.650   5.167   3.011 -2.2694 -0.7796  0.6953
 2831SOL    HW2 9935   3.709   5.147   2.873  1.5593  1.9083  1.7574
 2832SOL     OW 9936   5.376   4.956   5.553  0.6152 -0.6445 -0.1092
 2832SOL    HW1 9937   5.401   5.047   5.535  0.8137 -0.2706  1.7837
 2832SOL    HW2 9938   5.377   4.913   5.468 -1.2001  1.5170 -1.3299
 2833SOL     OW 9939   3.425   1.897  12.285 -0.4463  0.0763  0.2511
 2833SOL    HW1 9940   3.334   1.920  12.299 -0.0940  0.8636  1.4402
 2833SOL    HW2 9941   3.474   1.971  12.321  0.6675 -0.5631  0.1019
 2834SOL     OW 9942   4.074   7.774   4.125 -0.2678 -0.0754 -0.3460
 2834SOL    HW1 9943   3.997   7.760   4.181 -1.0938  1.3078 -1.0659
 2834SOL    HW2 9944   4.047   7.844   4.065  0.7037 -1.2487 -2.2501
 2835SOL     OW 9945   6.908   5.036   9.737 -0.0562 -0.0133  0.3562
 2835SOL    HW1 9946   6.945   4.970   9.679  1.4978  1.5681 -0.5599
 2835SOL    HW2 9947   6.979   5.058   9.797  0.3757  2.5772 -0.9642
 2836SOL     OW 9948   5.607   3.298   2.618  0.3860  0.5703 -0.0925
 2836SOL    HW1 9949   5.556   3.370   2.656 -0.8228  0.3463 -1.2298
 2836SOL    HW2 9950   5.635   3.331   2.533 -0.3610 -0.3597 -0.7207
 2837SOL     OW 9951   5.822   7.521   6.988 -0.1364  0.1340 -0.5622
 2837SOL    HW1 9952   5.874   7.449   7.023 -0.3851 -0.1725 -0.8163
 2837SOL    HW2 9953   5.755   7.536   7.055  1.7835  2.2645  1.0175
 2838SOL     OW 9954   1.602   4.139   0.335 -0.0545  0.0370 -0.7241
 2838SOL    HW1 9955   1.664   4.212   0.327 -0.2347  0.2415 -0.2744
 2838SOL    HW2 9956   1.602   4.118   0.429 -0.8627  0.2101 -0.6812
 2839SOL     OW 9957   2.714   4.136   4.596 -0.2015 -0.1906  0.3592
 2839SOL    HW1 9958   2.784   4.074   4.619 -1.5051 -0.4124  4.5362
 2839SOL    HW2 9959   2.758   4.221   4.593  0.8235 -0.7279 -0.7535
 2840SOL     OW 9960   2.069   3.763  12.060  0.2420 -0.3096 -0.2589
 2840SOL    HW1 9961   2.053   3.841  12.113  0.2767 -1.4649  1.5045
 2840SOL    HW2 9962   1.990   3.753  12.008 -1.5901 -1.3726  2.4993
 2841SOL     OW 9963   5.224   4.729   8.848 -0.9660 -0.2267  0.0954
 2841SOL    HW1 9964   5.232   4.640   8.882  0.7578  0.3220  1.3159
 2841SOL    HW2 9965   5.132   4.737   8.822 -1.2666 -2.1955  0.3692
 2842SOL     OW 9966   1.699   6.420   1.709  0.3045  0.1298  0.1049
 2842SOL    HW1 9967   1.740   6.335   1.723  3.2620  1.5210  0.7346
 2842SOL    HW2 9968   1.767   6.483   1.733 -0.7256  2.7274 -3.0646
 2843SOL     OW 9969   3.477   6.295   7.327 -0.1091  0.0383 -0.0071
 2843SOL    HW1 9970   3.543   6.280   7.395  1.1091 -2.1495 -1.5558
 2843SOL    HW2 9971   3.518   6.356   7.266  0.5471 -1.3025 -0.9567
 2844SOL     OW 9972   5.719   3.004   3.120  0.0199 -0.7672 -0.5496
 2844SOL    HW1 9973   5.765   3.012   3.204  0.2843  0.4222 -0.7805
 2844SOL    HW2 9974   5.667   2.924   3.128 -1.6070  0.3980  1.5731
 2845SOL     OW 9975   0.577   1.429   4.467  0.4536 -0.1369  0.1338
 2845SOL    HW1 9976   0.514   1.360   4.491  0.0168  1.1214  3.1047
 2845SOL    HW2 9977   0.660   1.382   4.460  0.2617 -1.0455  2.5696
 2846SOL     OW 9978   5.866   0.325  10.430 -0.1687 -0.5207  0.4167
 2846SOL    HW1 9979   5.830   0.243  10.395  1.7938 -1.1662 -0.2039
 2846SOL    HW2 9980   5.823   0.393  10.378  1.2890 -1.3829 -2.1063
 2847SOL     OW 9981   2.474   7.010   0.029  0.0273 -0.5146 -0.5585
 2847SOL    HW1 9982   2.406   6.971  -0.026 -0.2293 -2.6044  1.1011
 2847SOL    HW2 9983   2.425   7.064   0.091 -0.0916 -1.4615  0.1928
 2848SOL     OW 9984   6.483   4.079   9.443  0.4747  0.0296 -0.0235
 2848SOL    HW1 9985   6.417   4.010   9.451  0.0605  0.3700 -0.4309
 2848SOL    HW2 9986   6.477   4.107   9.352  0.9424  0.3028  0.0308
 2849SOL     OW 9987   7.444   5.435   5.080 -0.4531  0.6457 -0.2105
 2849SOL    HW1 9988   7.481   5.500   5.019 -0.8839 -0.5611 -1.8171
 2849SOL    HW2 9989   7.360   5.472   5.106  0.1170  1.5825  0.3907
 2850SOL     OW 9990   5.059   3.022   1.544 -0.1178  0.2019  0.1753
 2850SOL    HW1 9991   5.085   3.036   1.635 -0.3803 -0.5078  0.3654
 2850SOL    HW2 9992   5.063   2.927   1.532 -0.5924  0.2466 -0.3971
 2851SOL     OW 9993   4.753   4.244   8.919  0.2670  0.2327 -0.1568
 2851SOL    HW1 9994   4.770   4.216   8.829  2.6348 -0.5615  0.4574
 2851SOL    HW2 9995   4.794   4.331   8.926 -0.7460  0.7192 -0.0830
 2852SOL     OW 9996   3.712   0.325   7.856 -0.5280 -0.2450 -0.0901
 2852SOL    HW1 9997   3.693   0.231   7.860 -0.6364 -0.2463 -0.6571
 2852SOL    HW2 9998   3.641   0.361   7.802 -0.1269  0.0691 -0.4063
 2853SOL     OW 9999   5.709   6.436  11.065  0.4228  0.4139 -0.2152
 2853SOL    HW110000   5.742   6.349  11.044  0.2165  0.1967  0.3535
 2853SOL    HW210001   5.740   6.454  11.153 -2.0624 -0.3747  0.9199
 2854SOL     OW10002   7.861   6.163   0.298 -0.2697  0.4350  0.0329
 2854SOL    HW110003   7.910   6.107   0.359 -0.7439 -0.0561 -0.0291
 2854SOL    HW210004   7.834   6.238   0.352  0.3976  0.6231  0.1084
 2855SOL     OW10005   7.567   2.401   8.695 -0.1621 -0.1419  0.2848
 2855SOL    HW110006   7.530   2.390   8.783  0.1918 -2.4940  0.2105
 2855SOL    HW210007   7.519   2.339   8.641  1.6160 -0.8938 -0.5267
 2856SOL     OW10008   1.160   6.088   3.644 -0.6508  0.0958  0.4855
 2856SOL    HW110009   1.115   6.083   3.728 -0.5250 -0.2475  0.5306
 2856SOL    HW210010   1.100   6.047   3.582 -0.0361 -1.1427  0.6923
 2857SOL     OW10011   5.217   2.527   4.823  0.7948 -0.6185  0.5394
 2857SOL    HW110012   5.219   2.617   4.790 -0.1116  0.0362  2.1603
 2857SOL    HW210013   5.200   2.473   4.745  0.8072  0.6528 -0.3707
 2858SOL     OW10014   7.563   6.102  11.144  0.4884 -0.3637 -0.3919
 2858SOL    HW110015   7.468   6.103  11.139  0.4910 -1.6090 -1.4445
 2858SOL    HW210016   7.590   6.184  11.102 -0.1147 -0.1659 -0.4012
 2859SOL     OW10017   3.181   5.090   0.072 -0.0557  0.4388 -0.5397
 2859SOL    HW110018   3.102   5.039   0.052  0.2889 -0.9085  1.2805
 2859SOL    HW210019   3.147   5.173   0.106 -0.6651  0.3029 -0.7918
 2860SOL     OW10020   5.437   1.795   2.183  0.2588 -0.5061  0.1592
 2860SOL    HW110021   5.473   1.881   2.161 -0.0184 -0.5230 -0.3933
 2860SOL    HW210022   5.490   1.764   2.256 -0.6010  0.7782  1.3647
 2861SOL     OW10023   3.290   4.836  11.189 -0.3945 -0.5223 -0.2833
 2861SOL    HW110024   3.222   4.903  11.192  0.1211  0.1848 -2.4063
 2861SOL    HW210025   3.243   4.755  11.167 -0.5999 -0.0661 -1.6019
 2862SOL     OW10026   3.162   7.163  11.065  0.2487  0.0868  0.1256
 2862SOL    HW110027   3.242   7.119  11.035 -0.2857 -0.5086 -0.4479
 2862SOL    HW210028   3.117   7.188  10.984 -0.2427  0.2469  0.4437
 2863SOL     OW10029   7.954   4.519   0.064  0.3075 -0.5432 -0.5375
 2863SOL    HW110030   7.983   4.594   0.012  1.5766  1.7729  3.1201
 2863SOL    HW210031   8.003   4.445   0.030 -0.7568  0.2145 -4.0883
 2864SOL     OW10032   5.306   4.893   9.562  0.4648  0.4451 -0.7758
 2864SOL    HW110033   5.211   4.900   9.571  0.4972 -0.1264  0.2322
 2864SOL    HW210034   5.340   4.951   9.630  0.7757 -2.0020  1.3049
 2865SOL     OW10035   0.079   3.578   2.565 -0.3281 -0.0470  0.5106
 2865SOL    HW110036   0.079   3.492   2.523 -0.3362 -0.3649  1.1594
 2865SOL    HW210037   0.040   3.636   2.500 -1.8485 -0.8375  0.6768
 2866SOL     OW10038   4.714   6.047   9.775  0.1016 -0.2884  0.0750
 2866SOL    HW110039   4.705   6.119   9.712 -0.4059  1.4371  1.9882
 2866SOL    HW210040   4.712   5.968   9.722 -1.6745  0.9986 -1.9556
 2867SOL     OW10041   1.595   6.852   3.733 -0.1591 -0.1033  0.7647
 2867SOL    HW110042   1.544   6.859   3.652 -1.4611  1.4998  1.6812
 2867SOL    HW210043   1.539   6.801   3.792  0.3692 -0.4137  1.0039
 2868SOL     OW10044   4.162   0.269   3.396  0.1126  0.8510  0.0513
 2868SOL    HW110045   4.123   0.337   3.342  0.9906  1.2943 -0.0417
 2868SOL    HW210046   4.092   0.205   3.409 -0.4943  1.3967 -0.4932
 2869SOL     OW10047   4.764   5.284  10.765  0.3161  0.9692  0.2980
 2869SOL    HW110048   4.836   5.323  10.716  0.7773 -2.0172 -1.6781
 2869SOL    HW210049   4.800   5.204  10.803 -1.7228 -0.2262 -0.1050
 2870SOL     OW10050   1.322   0.534   5.567  0.3286  0.3252  0.0422
 2870SOL    HW110051   1.236   0.574   5.553 -0.7137 -2.2007 -1.3549
 2870SOL    HW210052   1.310   0.480   5.646  0.2305 -0.9600 -0.8299
 2871SOL     OW10053   5.358   5.647   7.489 -0.8045 -0.0711  0.2416
 2871SOL    HW110054   5.328   5.557   7.480 -1.1441 -0.0052  0.7013
 2871SOL    HW210055   5.300   5.698   7.432 -0.6077 -0.1406 -0.0239
 2872SOL     OW10056   4.190   3.871   2.152 -0.3439  0.0344  0.2734
 2872SOL    HW110057   4.116   3.816   2.177 -0.3683  0.0747  0.2891
 2872SOL    HW210058   4.249   3.867   2.228  0.1066 -0.7518 -0.0989
 2873SOL     OW10059   6.037   5.938   3.065 -0.6806  0.1236 -0.0596
 2873SOL    HW110060   6.059   6.031   3.072 -2.1402  0.6507 -1.8074
 2873SOL    HW210061   6.119   5.893   3.085  1.1635  1.8806 -2.9753
 2874SOL     OW10062   4.378   1.081   0.534  0.3945 -0.3450 -0.0082
 2874SOL    HW110063   4.409   1.144   0.598  1.6310 -0.9534  0.0177
 2874SOL    HW210064   4.375   1.130   0.452 -0.5554  0.2570  0.3777
 2875SOL     OW10065   4.919   6.484   4.295  0.8502 -0.2559 -0.3428
 2875SOL    HW110066   4.936   6.450   4.383 -0.1896 -0.7812 -0.3275
 2875SOL    HW210067   4.963   6.568   4.293 -0.5446  0.5858  1.3053
 2876SOL     OW10068   2.082   5.447  10.380 -0.0651  0.1560 -0.2784
 2876SOL    HW110069   2.070   5.354  10.399 -0.7107 -0.2838 -2.5282
 2876SOL    HW210070   2.168   5.452  10.337  0.9170  0.9612  1.6335
 2877SOL     OW10071   7.561   6.800   5.089 -0.1114 -0.1324  0.1610
 2877SOL    HW110072   7.647   6.834   5.067 -0.6772  0.2384 -1.6446
 2877SOL    HW210073   7.507   6.819   5.012 -1.5684 -1.1810  0.8708
 2878SOL     OW10074   2.385   4.641   5.223  0.2992  0.1271  0.7893
 2878SOL    HW110075   2.341   4.655   5.139 -0.2120 -0.7846  0.8957
 2878SOL    HW210076   2.325   4.678   5.288  0.5834  0.6154  0.7779
 2879SOL     OW10077   3.498   2.492   4.406 -0.4681  0.2733  0.2620
 2879SOL    HW110078   3.447   2.502   4.326 -1.6100  0.5194  0.9966
 2879SOL    HW210079   3.481   2.572   4.456  0.8903  0.4945  0.3991
 2880SOL     OW10080   5.621   3.335   1.640  1.1388 -0.1557 -0.0703
 2880SOL    HW110081   5.577   3.272   1.697  1.5086 -0.6207 -0.2875
 2880SOL    HW210082   5.551   3.379   1.593  0.8381  0.0883  0.5927
 2881SOL     OW10083   2.266   1.579  11.020  0.4438  0.1135 -0.6826
 2881SOL    HW110084   2.219   1.660  10.999 -1.3564 -0.1441  1.8642
 2881SOL    HW210085   2.356   1.607  11.034  0.4296  1.2018 -2.3663
 2882SOL     OW10086   5.827   5.014   3.503  0.0160  0.4684 -0.0516
 2882SOL    HW110087   5.815   5.105   3.529 -1.8694  1.0356 -2.5066
 2882SOL    HW210088   5.799   5.011   3.412  1.4900 -2.2931 -0.5249
 2883SOL     OW10089   6.973   0.501  12.426  0.1614  0.2466  0.1722
 2883SOL    HW110090   6.997   0.416  12.390 -3.3417 -0.7771 -0.1613
 2883SOL    HW210091   6.995   0.495  12.519  1.5932 -0.3095 -0.1838
 2884SOL     OW10092   2.766   4.437   1.416  0.0739  0.1505  0.3727
 2884SOL    HW110093   2.691   4.395   1.373 -0.0586 -0.2040  0.9400
 2884SOL    HW210094   2.829   4.366   1.429  0.6118  0.4894 -0.3021
 2885SOL     OW10095   6.073   7.630   6.648 -0.2177  0.1144 -0.1602
 2885SOL    HW110096   5.983   7.599   6.649 -0.2400  0.1491  1.2371
 2885SOL    HW210097   6.067   7.723   6.668  0.1922 -0.1773  1.4724
 2886SOL     OW10098   1.122   2.393   6.244 -0.0875  0.3223 -0.0899
 2886SOL    HW110099   1.137   2.394   6.338  2.2893  1.9471 -0.3892
 2886SOL    HW210100   1.027   2.390   6.234 -0.3889  0.0610  2.3229
 2887SOL     OW10101   7.142   1.684  10.431 -0.1861  0.2596  0.1387
 2887SOL    HW110102   7.143   1.605  10.485 -1.1096 -0.2989 -0.6163
 2887SOL    HW210103   7.228   1.684  10.388  0.4544  0.5744  1.3881
 2888SOL     OW10104   0.095   4.341   2.043  0.1171  0.1551 -0.6581
 2888SOL    HW110105   0.024   4.371   1.985  0.5745  1.4917 -0.5668
 2888SOL    HW210106   0.087   4.246   2.043 -2.0361  0.2767 -0.2045
 2889SOL     OW10107   0.751   7.253  11.221 -0.6504 -1.0584  0.3455
 2889SOL    HW110108   0.667   7.297  11.232 -0.7299 -1.3721  1.0025
 2889SOL    HW210109   0.746   7.176  11.277 -1.0333 -2.6976 -1.8129
 2890SOL     OW10110   6.592   1.860  11.960 -0.5939 -0.0638 -0.6036
 2890SOL    HW110111   6.606   1.830  12.050 -1.4692 -0.8137 -0.6994
 2890SOL    HW210112   6.585   1.779  11.909 -1.2004  0.3346 -1.1606
 2891SOL     OW10113   5.055   6.917   6.982  0.6599 -0.2008 -0.0783
 2891SOL    HW110114   5.082   7.007   7.002 -2.9567  1.0524 -0.0456
 2891SOL    HW210115   5.037   6.918   6.888 -0.7488 -0.4095  0.1624
 2892SOL     OW10116   2.610   0.620  11.473 -0.3112  0.5955 -0.0735
 2892SOL    HW110117   2.628   0.531  11.503  0.9385  0.8504 -0.0086
 2892SOL    HW210118   2.622   0.617  11.379 -0.1139  0.7194 -0.0539
 2893SOL     OW10119   3.835   7.007   5.570 -0.1682 -0.4048 -0.2422
 2893SOL    HW110120   3.904   7.027   5.507  0.1947 -2.5831 -0.6169
 2893SOL    HW210121   3.879   7.013   5.655 -0.1693  0.6247 -0.3000
 2894SOL     OW10122   1.736   7.600   6.858  0.1842  0.0593  0.1513
 2894SOL    HW110123   1.792   7.642   6.923 -0.2685  0.3878  0.3343
 2894SOL    HW210124   1.778   7.620   6.774  0.0191  0.8056  0.2443
 2895SOL     OW10125   2.080   6.498   9.014  0.5986  0.1783 -0.1500
 2895SOL    HW110126   2.157   6.552   8.995  0.3981 -0.0221 -1.5941
 2895SOL    HW210127   2.006   6.556   8.997  0.3987  0.5059  1.6486
 2896SOL     OW10128   0.905   0.158   6.902  0.1562 -0.8746 -0.3068
 2896SOL    HW110129   0.982   0.168   6.847 -0.2288  1.1098 -0.5819
 2896SOL    HW210130   0.832   0.187   6.847 -0.1918  1.6639  1.2864
 2897SOL     OW10131   7.126   4.949   2.391 -0.3494  0.5344 -0.1443
 2897SOL    HW110132   7.177   4.885   2.441 -1.4144  0.3586  0.7507
 2897SOL    HW210133   7.162   5.034   2.418 -0.0860  0.3895 -0.0357
 2898SOL     OW10134   1.248   1.071   6.886  0.4554  0.2882 -0.0077
 2898SOL    HW110135   1.318   1.090   6.824  1.4992 -0.2824  0.9683
 2898SOL    HW210136   1.281   0.999   6.939  0.2326  1.7386  2.2142
 2899SOL     OW10137   0.919   2.652   1.072 -0.0433  0.2731  0.4117
 2899SOL    HW110138   0.988   2.639   1.007 -0.3390  0.0109  0.1389
 2899SOL    HW210139   0.945   2.597   1.146  0.3701  0.6878  0.5756
 2900SOL     OW10140   6.766   7.708   0.075 -0.9633  0.1126 -0.0449
 2900SOL    HW110141   6.820   7.714  -0.004 -0.7383 -0.4749  0.0578
 2900SOL    HW210142   6.738   7.616   0.077 -0.3903 -0.0479  0.9414
 2901SOL     OW10143   7.205   5.389   4.268 -0.6313  0.1489  0.2521
 2901SOL    HW110144   7.225   5.311   4.215 -2.3009 -0.0581 -0.1364
 2901SOL    HW210145   7.127   5.426   4.227 -1.5083  0.4405  2.1002
 2902SOL     OW10146   3.567   7.302   7.955  0.1149  0.8950 -0.2294
 2902SOL    HW110147   3.501   7.233   7.962  0.6060  0.4670  0.3483
 2902SOL    HW210148   3.555   7.339   7.868  0.2343 -0.3350 -0.7910
 2903SOL     OW10149   1.692   5.240   6.070  0.1176  0.7086 -0.6473
 2903SOL    HW110150   1.726   5.322   6.105  0.4948  0.6079 -0.7683
 2903SOL    HW210151   1.682   5.256   5.976 -0.7661  0.9357 -0.5202
 2904SOL     OW10152   4.027   3.964   7.630  0.0845 -0.4490 -0.0143
 2904SOL    HW110153   3.957   3.955   7.695  0.1878  1.4951  0.4166
 2904SOL    HW210154   4.107   3.972   7.682 -0.0713  3.6679 -0.1012
 2905SOL     OW10155   5.503   0.918   3.207 -0.2537  0.6086 -0.0987
 2905SOL    HW110156   5.548   0.835   3.194 -2.3270 -0.7515  0.9191
 2905SOL    HW210157   5.446   0.927   3.131 -1.0437  0.3576  0.4401
 2906SOL     OW10158   4.650   6.223   8.698  0.3299  0.3586  0.6895
 2906SOL    HW110159   4.578   6.241   8.637  1.8218  0.1119 -1.2166
 2906SOL    HW210160   4.706   6.300   8.692  1.6979 -0.6639 -0.0553
 2907SOL     OW10161   2.766   4.401   7.669 -0.4307 -0.1455  0.4813
 2907SOL    HW110162   2.781   4.381   7.761 -0.4144 -0.9073  0.3247
 2907SOL    HW210163   2.849   4.381   7.626  0.2747  2.2748  0.5844
 2908SOL     OW10164   2.812   3.183   4.374  0.2271  0.0444 -0.3343
 2908SOL    HW110165   2.855   3.100   4.352  0.5504  0.2543 -0.5046
 2908SOL    HW210166   2.783   3.171   4.465  0.1951 -0.2862 -0.3867
 2909SOL     OW10167   7.396   6.927   8.426  0.5574  0.5768 -1.0168
 2909SOL    HW110168   7.312   6.941   8.468  0.9521 -1.0422  0.4124
 2909SOL    HW210169   7.435   7.015   8.421 -0.9602  1.2691 -1.2397
 2910SOL     OW10170   7.889   1.460  12.304  0.4160  0.6150 -0.2883
 2910SOL    HW110171   7.927   1.444  12.390 -1.8688 -1.3504  0.4740
 2910SOL    HW210172   7.930   1.394  12.248  0.4273  0.5565 -0.2118
 2911SOL     OW10173   0.194   4.695  11.507 -0.3432 -0.1383 -0.0833
 2911SOL    HW110174   0.110   4.729  11.535 -0.3847  0.8903 -1.4021
 2911SOL    HW210175   0.174   4.633  11.437 -0.0258 -0.2105 -0.1159
 2912SOL     OW10176   0.149   1.729   2.145  0.2706 -0.1648  0.5756
 2912SOL    HW110177   0.116   1.767   2.064  1.2019 -1.4737 -0.4515
 2912SOL    HW210178   0.187   1.645   2.119  0.2646 -0.7876  2.4273
 2913SOL     OW10179   2.362   6.781   4.455  0.1215  0.5318  0.0486
 2913SOL    HW110180   2.306   6.844   4.409 -2.2874 -1.5917 -0.1257
 2913SOL    HW210181   2.413   6.739   4.386 -2.4454 -1.6377 -0.6499
 2914SOL     OW10182   6.840   2.607   6.024 -0.0577 -0.0297 -0.3292
 2914SOL    HW110183   6.871   2.647   5.943  0.4447  0.6463  0.1956
 2914SOL    HW210184   6.799   2.678   6.073 -0.8167 -0.5355 -0.1958
 2915SOL     OW10185   6.626   1.028  11.448  0.0873 -0.4772  0.6139
 2915SOL    HW110186   6.637   1.043  11.354 -0.2700  0.1385  0.6638
 2915SOL    HW210187   6.696   0.967  11.471  0.5973 -0.1075  0.0802
 2916SOL     OW10188   3.925   5.533  12.179 -0.5389  0.7253 -0.0336
 2916SOL    HW110189   3.874   5.455  12.157 -0.1811  0.9743 -1.8919
 2916SOL    HW210190   3.865   5.606  12.161  0.1827  0.9867 -1.4688
 2917SOL     OW10191   3.449   6.190   6.990 -0.1639  0.2719  0.2574
 2917SOL    HW110192   3.422   6.127   7.057  1.4666 -0.6660  0.0791
 2917SOL    HW210193   3.467   6.270   7.039 -1.0097  0.2199  0.6626
 2918SOL     OW10194   7.254   1.324   6.499  0.6543  0.0449 -0.2316
 2918SOL    HW110195   7.348   1.308   6.511  0.6485 -0.0904 -0.3657
 2918SOL    HW210196   7.242   1.416   6.525  0.3800 -0.6230  2.2681
 2919SOL     OW10197   4.175   6.521   6.243 -0.1710 -0.1366  0.3364
 2919SOL    HW110198   4.095   6.496   6.197 -0.1409  0.8547 -0.2853
 2919SOL    HW210199   4.209   6.595   6.194  0.0758  0.7219  1.7331
 2920SOL     OW10200   6.838   0.080  11.632 -0.5167 -0.0922 -0.2840
 2920SOL    HW110201   6.757   0.119  11.666  0.7587  1.8055  0.7620
 2920SOL    HW210202   6.908   0.135  11.668  1.2691 -1.7978 -0.9753
 2921SOL     OW10203   5.416   0.264  11.902 -0.1805  0.1800 -0.6407
 2921SOL    HW110204   5.322   0.245  11.900 -0.3513  0.8705  0.2203
 2921SOL    HW210205   5.455   0.189  11.947 -0.6108  0.9176  1.0206
 2922SOL     OW10206   0.947   4.669   9.318  0.2117  0.5567 -0.6122
 2922SOL    HW110207   1.013   4.739   9.319  0.7365  0.0715 -0.3276
 2922SOL    HW210208   0.999   4.588   9.312 -0.3573  0.1593 -0.2341
 2923SOL     OW10209   6.047   0.049  11.872  0.5072 -0.3461 -0.1184
 2923SOL    HW110210   6.066   0.123  11.814  2.2925  0.9991  2.0463
 2923SOL    HW210211   6.093   0.069  11.953  0.2037 -3.3755  0.9309
 2924SOL     OW10212   7.505   2.548  11.650 -0.3281  0.8513  0.0049
 2924SOL    HW110213   7.548   2.499  11.581 -1.8147  0.6689 -0.8414
 2924SOL    HW210214   7.412   2.544  11.628 -0.7248  1.8442  1.3443
 2925SOL     OW10215   2.424   4.118   7.399  0.0057 -0.2516  0.0457
 2925SOL    HW110216   2.354   4.152   7.343  1.4350  4.2587  0.6504
 2925SOL    HW210217   2.387   4.118   7.487  0.3941  1.0919  0.2201
 2926SOL     OW10218   1.380   3.130   9.024  0.6762 -0.6673  0.7011
 2926SOL    HW110219   1.332   3.203   9.063 -0.4256 -1.1751  0.3518
 2926SOL    HW210220   1.389   3.066   9.095  3.6086  0.6262  1.6726
 2927SOL     OW10221   5.350   1.841   4.459  0.4361 -0.4008  0.1265
 2927SOL    HW110222   5.281   1.797   4.410  0.3009  0.1843 -0.2246
 2927SOL    HW210223   5.316   1.929   4.474 -0.0121 -0.8758  2.2631
 2928SOL     OW10224   2.054   7.105  10.597  0.1011  0.0292 -0.0538
 2928SOL    HW110225   2.071   7.167  10.667  1.8890 -0.0633 -0.3783
 2928SOL    HW210226   2.048   7.159  10.518  0.4917 -0.1049 -0.1734
 2929SOL     OW10227   5.697   5.453   9.667 -0.4108  0.4438 -0.5691
 2929SOL    HW110228   5.762   5.439   9.736  0.0105  2.1263 -0.5710
 2929SOL    HW210229   5.619   5.407   9.698  0.4681 -0.7763 -0.0924
 2930SOL     OW10230   7.098   0.761   1.778  0.2520  0.4818 -0.0591
 2930SOL    HW110231   7.179   0.735   1.733 -0.1973 -0.7386 -0.1949
 2930SOL    HW210232   7.050   0.679   1.789 -1.2053  1.2534 -0.4379
 2931SOL     OW10233   1.886   0.033   3.694 -0.2687 -0.2700  0.1350
 2931SOL    HW110234   1.819   0.101   3.697 -0.6533 -0.6317 -0.2191
 2931SOL    HW210235   1.969   0.081   3.685 -0.6362  0.1122 -1.4312
 2932SOL     OW10236   1.627   4.514   5.522 -0.1603  0.2011 -0.1474
 2932SOL    HW110237   1.619   4.520   5.617  0.8120  2.3142 -0.1275
 2932SOL    HW210238   1.720   4.533   5.505  0.2492 -2.5406 -1.4165
 2933SOL     OW10239   3.147   1.111   3.685 -0.5420  0.0151 -0.4380
 2933SOL    HW110240   3.138   1.206   3.677  1.4414  0.4542  1.5156
 2933SOL    HW210241   3.158   1.096   3.779 -0.4577 -2.1101 -0.7442
 2934SOL     OW10242   7.052   7.020   3.995  0.4080 -0.2843  0.1902
 2934SOL    HW110243   7.106   6.942   4.004 -0.0433 -0.6921 -0.4777
 2934SOL    HW210244   7.113   7.089   3.971  1.0087 -0.1092  2.0875
 2935SOL     OW10245   3.162   1.180   4.486  0.2876 -0.1837 -0.1544
 2935SOL    HW110246   3.168   1.194   4.580 -1.3952  1.1514 -0.1833
 2935SOL    HW210247   3.253   1.174   4.456  0.8409 -1.6599  1.6570
 2936SOL     OW10248   4.005   6.651   7.510  0.7930  0.0782  0.2392
 2936SOL    HW110249   3.972   6.693   7.430  0.3798  2.7902  1.7213
 2936SOL    HW210250   3.931   6.602   7.544  0.1884  0.9527  0.2235
 2937SOL     OW10251   2.874   1.928   7.799 -0.0476 -0.4238  0.0739
 2937SOL    HW110252   2.942   1.963   7.740 -2.1825  0.2543 -2.1460
 2937SOL    HW210253   2.836   1.855   7.750 -3.8852  1.9593 -0.9306
 2938SOL     OW10254   2.798   2.228   0.236 -0.2321  0.1129  0.1309
 2938SOL    HW110255   2.817   2.317   0.208  0.9226 -0.0182  0.4454
 2938SOL    HW210256   2.725   2.200   0.180  1.0617  0.3628 -1.7641
 2939SOL     OW10257   6.457   2.169   7.406 -0.1082  0.0080 -0.1782
 2939SOL    HW110258   6.521   2.146   7.473 -1.7657  0.0095  1.4520
 2939SOL    HW210259   6.489   2.253   7.371  0.9402 -0.1491  0.3480
 2940SOL     OW10260   0.144   7.502   0.544 -0.1831 -0.3240  0.0091
 2940SOL    HW110261   0.146   7.548   0.460 -0.3830  0.4241  0.3968
 2940SOL    HW210262   0.234   7.509   0.577  0.1758 -1.6031 -0.6396
 2941SOL     OW10263   0.269   1.557   6.226 -0.4506 -0.2760 -0.1405
 2941SOL    HW110264   0.263   1.651   6.209  0.6925 -0.0808  0.4186
 2941SOL    HW210265   0.362   1.537   6.219 -0.7225 -1.4580 -0.6643
 2942SOL     OW10266   0.469   5.383   7.719  0.0799 -0.0435  0.0258
 2942SOL    HW110267   0.514   5.331   7.786  0.7043  0.6445  0.1595
 2942SOL    HW210268   0.420   5.448   7.769  0.9837  0.8204 -0.1785
 2943SOL     OW10269   1.967   5.884   2.976  0.0691  0.0961  0.3607
 2943SOL    HW110270   2.039   5.935   3.013  2.3720  0.3425 -3.8802
 2943SOL    HW210271   1.995   5.793   2.984  1.4712  0.2369 -2.1453
 2944SOL     OW10272   1.062   0.674   0.034 -0.4217  0.0575 -0.3013
 2944SOL    HW110273   1.020   0.757   0.010 -2.2521 -0.4038  1.1504
 2944SOL    HW210274   1.088   0.685   0.125  1.8360 -0.0447 -0.8565
 2945SOL     OW10275   2.508   7.655   8.387 -0.3185 -0.2547  0.8442
 2945SOL    HW110276   2.595   7.623   8.410 -0.7240 -2.0399  0.1057
 2945SOL    HW210277   2.496   7.626   8.296 -0.2859  3.1384 -0.3928
 2946SOL     OW10278   7.625   4.176   4.327  0.6588 -0.1760  0.4375
 2946SOL    HW110279   7.635   4.219   4.242 -0.9975 -0.0228  0.2677
 2946SOL    HW210280   7.607   4.248   4.388  1.8077 -0.2899  0.9191
 2947SOL     OW10281   2.737   1.011   4.153  0.3992 -0.0250 -0.1737
 2947SOL    HW110282   2.767   0.949   4.086  2.0908  0.3275  0.1982
 2947SOL    HW210283   2.700   1.084   4.104  0.9225 -0.1110 -0.7118
 2948SOL     OW10284   5.550   5.400   3.143 -0.5036 -0.0004  0.2166
 2948SOL    HW110285   5.470   5.444   3.114 -0.2644  0.2982  0.0006
 2948SOL    HW210286   5.564   5.430   3.233 -0.2637  0.4782  0.0209
 2949SOL     OW10287   4.610   1.618   2.114  0.2694 -0.0360 -0.0780
 2949SOL    HW110288   4.593   1.607   2.021  0.1511 -0.1968 -0.0369
 2949SOL    HW210289   4.523   1.627   2.153  0.1450 -2.4254  0.3433
 2950SOL     OW10290   7.108   4.777   1.942  0.1153 -0.1241 -0.1363
 2950SOL    HW110291   7.185   4.742   1.988  1.2124  0.7294 -1.2667
 2950SOL    HW210292   7.072   4.842   2.003  0.8973  0.1891  0.0143
 2951SOL     OW10293   6.621   5.815   5.411  0.2577  0.8585 -0.0623
 2951SOL    HW110294   6.557   5.871   5.455 -0.3067 -0.6388  1.1124
 2951SOL    HW210295   6.706   5.845   5.444  0.0411  1.5754 -0.1310
 2952SOL     OW10296   1.821   2.532   5.434 -0.8070 -0.0751 -0.2942
 2952SOL    HW110297   1.758   2.585   5.385 -0.8435  1.6639  1.4912
 2952SOL    HW210298   1.896   2.589   5.446 -1.0532 -0.1685  2.1645
 2953SOL     OW10299   3.252   6.492  10.320  0.3814 -0.1363  0.9628
 2953SOL    HW110300   3.258   6.482  10.415  0.6509 -1.1748  0.8439
 2953SOL    HW210301   3.231   6.405  10.287  1.0577  0.0406  0.0075
 2954SOL     OW10302   1.471   6.467   1.528  0.1521  0.4040  0.2723
 2954SOL    HW110303   1.500   6.452   1.437 -1.3674  0.1378 -0.1990
 2954SOL    HW210304   1.546   6.439   1.581 -0.5409 -4.1446 -0.7036
 2955SOL     OW10305   7.378   3.476   8.260  0.0326 -0.3006  0.4095
 2955SOL    HW110306   7.306   3.537   8.246  0.6344  0.3285  0.0196
 2955SOL    HW210307   7.337   3.390   8.262 -0.6256 -0.0269 -0.7082
 2956SOL     OW10308   5.652   6.819   6.217 -0.3865  0.4944  0.4328
 2956SOL    HW110309   5.746   6.835   6.230  0.1949  1.0669 -3.2604
 2956SOL    HW210310   5.640   6.728   6.241  0.9054  0.6371  1.7864
 2957SOL     OW10311   0.305   5.608   7.822  0.0990 -0.0398 -0.3558
 2957SOL    HW110312   0.292   5.653   7.905  0.9448  0.9568 -0.7340
 2957SOL    HW210313   0.281   5.672   7.756 -2.0908 -1.3388 -0.9053
 2958SOL     OW10314   7.889   5.827   0.054 -0.3118  0.1085 -0.1439
 2958SOL    HW110315   7.911   5.734   0.054 -1.1631 -0.1271 -1.5163
 2958SOL    HW210316   7.812   5.834   0.109  2.0141  0.6906  3.3411
 2959SOL     OW10317   0.010   2.751   4.696  0.2082  0.1605  0.2496
 2959SOL    HW110318   0.075   2.689   4.728 -0.9663 -0.6408  1.1966
 2959SOL    HW210319  -0.006   2.724   4.606 -2.2064 -2.7402  1.3765
 2960SOL     OW10320   5.832   1.304   4.252 -0.6630  0.4711 -0.4574
 2960SOL    HW110321   5.745   1.342   4.261 -1.5062 -1.4992  0.2635
 2960SOL    HW210322   5.833   1.231   4.313 -0.7309 -3.3147 -4.4462
 2961SOL     OW10323   3.639   1.419   9.026 -0.3804  0.0052 -0.2084
 2961SOL    HW110324   3.688   1.501   9.021 -0.1250 -0.0945  0.4609
 2961SOL    HW210325   3.568   1.437   9.088  0.4233 -0.6363  0.9343
 2962SOL     OW10326   2.004   7.943   4.458  0.1652 -0.2956 -1.0313
 2962SOL    HW110327   2.054   7.986   4.527 -4.2796  0.7239  1.9821
 2962SOL    HW210328   1.992   8.011   4.391  0.2419  0.4442 -0.3128
 2963SOL     OW10329   3.906   2.183   5.808  0.0380 -0.4660 -0.6199
 2963SOL    HW110330   3.949   2.188   5.894 -0.9064 -1.7813 -0.0371
 2963SOL    HW210331   3.968   2.135   5.753  0.4946  0.0744 -0.5902
 2964SOL     OW10332   0.506   4.466   6.925 -0.4104  0.1655  0.0329
 2964SOL    HW110333   0.504   4.507   6.838 -0.3933 -1.0073 -0.5349
 2964SOL    HW210334   0.579   4.405   6.921 -1.8259 -1.6234  0.0458
 2965SOL     OW10335   6.543   3.645   7.213  0.3613  0.2840 -0.3492
 2965SOL    HW110336   6.556   3.592   7.134  1.0282 -0.9623  0.5777
 2965SOL    HW210337   6.546   3.735   7.181 -0.8555 -0.1964 -1.9753
 2966SOL     OW10338   7.175   3.173   2.119  0.5056 -0.4693  0.3006
 2966SOL    HW110339   7.197   3.161   2.027  0.7277 -0.7181  0.3848
 2966SOL    HW210340   7.226   3.249   2.147  0.5644 -0.4942  0.2598
 2967SOL     OW10341   5.902   5.724   7.818  0.1591  0.3586  0.4103
 2967SOL    HW110342   5.812   5.695   7.803  0.4638 -0.1240 -0.5812
 2967SOL    HW210343   5.943   5.653   7.865 -0.3181  1.1381  2.0735
 2968SOL     OW10344   7.094   4.571   8.171  0.4851 -0.7823  0.2136
 2968SOL    HW110345   7.128   4.605   8.254  0.0468  0.1387  0.0317
 2968SOL    HW210346   7.038   4.497   8.197 -0.0275 -0.2078  0.7926
 2969SOL     OW10347   2.083   7.116   3.683 -0.1481  0.0515  0.2546
 2969SOL    HW110348   2.113   7.172   3.754  1.4241 -2.0530  1.3568
 2969SOL    HW210349   2.095   7.027   3.716 -0.1433 -0.9913 -2.3328
 2970SOL     OW10350   3.177   0.802   2.240 -0.0351  0.8109  0.2913
 2970SOL    HW110351   3.151   0.815   2.331 -0.5907 -0.6543  0.3629
 2970SOL    HW210352   3.095   0.796   2.192  0.1948 -0.6705  0.0411
 2971SOL     OW10353   5.122   7.386   9.775  0.1946  0.4227  0.3554
 2971SOL    HW110354   5.074   7.319   9.726  0.6311  1.3413 -1.3954
 2971SOL    HW210355   5.056   7.429   9.829  0.0162 -1.8454  2.0989
 2972SOL     OW10356   7.956   2.856   9.508 -0.5966 -0.4105  0.4587
 2972SOL    HW110357   8.049   2.839   9.495 -0.7617 -1.3008  0.3955
 2972SOL    HW210358   7.953   2.941   9.554  0.2482 -0.5147  0.7182
 2973SOL     OW10359   3.070   3.455  12.125 -0.7382 -0.0554  0.0987
 2973SOL    HW110360   3.100   3.388  12.063 -1.0986 -1.3403  1.2564
 2973SOL    HW210361   3.118   3.435  12.206 -2.2320 -0.0921  1.0131
 2974SOL     OW10362   3.971   6.156   8.891  0.2981  0.0145 -0.0039
 2974SOL    HW110363   3.877   6.168   8.903  0.2600 -0.8877  0.7624
 2974SOL    HW210364   3.980   6.067   8.856  0.8967 -0.2291  0.7179
 2975SOL     OW10365   3.095   3.693   6.882  0.1664 -0.1687  0.1281
 2975SOL    HW110366   3.176   3.641   6.888  0.9014  0.4027 -2.9049
 2975SOL    HW210367   3.105   3.743   6.801 -2.3198  1.6168  0.7984
 2976SOL     OW10368   1.728   1.384   9.712 -0.4706  0.3229 -0.2408
 2976SOL    HW110369   1.640   1.380   9.672 -1.8139  2.2404  2.2119
 2976SOL    HW210370   1.714   1.430   9.795  2.5803 -1.0997  1.1979
 2977SOL     OW10371   0.555   7.735   1.647 -0.1517 -0.4146 -0.1509
 2977SOL    HW110372   0.563   7.666   1.581  1.2021  0.8432 -1.3751
 2977SOL    HW210373   0.642   7.773   1.652 -0.6600  0.6591  1.1440
 2978SOL     OW10374   4.724   3.255   4.905 -0.1015 -0.0597 -0.6058
 2978SOL    HW110375   4.647   3.312   4.915  0.4530  0.8416 -1.2785
 2978SOL    HW210376   4.753   3.271   4.815 -0.0725 -1.6140 -0.8974
 2979SOL     OW10377   7.154   4.133   4.745 -0.9528 -0.4257 -0.0997
 2979SOL    HW110378   7.162   4.181   4.663  2.2976  0.2152  0.4516
 2979SOL    HW210379   7.192   4.047   4.726 -1.3759 -0.7248  0.3957
 2980SOL     OW10380   7.467   6.971   9.522  0.1083 -0.5903 -0.1391
 2980SOL    HW110381   7.497   7.061   9.538  1.0245 -1.1050  1.1435
 2980SOL    HW210382   7.378   6.982   9.488  0.3797  0.8183 -0.4719
 2981SOL     OW10383   5.378   4.302   8.959 -0.1754  0.4576  0.3441
 2981SOL    HW110384   5.295   4.312   8.914 -1.1132  1.3081  2.1434
 2981SOL    HW210385   5.412   4.392   8.966  0.5956  0.1872  0.1773
 2982SOL     OW10386   3.162   3.914  10.479 -0.3626 -0.3983 -0.0277
 2982SOL    HW110387   3.156   3.864  10.398  0.7164 -2.2038  0.9143
 2982SOL    HW210388   3.158   3.847  10.548 -0.1812  0.9725  1.3662
 2983SOL     OW10389   6.533   3.897   1.372 -0.1887 -0.2524  0.0056
 2983SOL    HW110390   6.485   3.854   1.443  0.4097  1.0640  1.2659
 2983SOL    HW210391   6.616   3.849   1.367  0.2537  0.3719  1.0371
 2984SOL     OW10392   7.484   5.036   2.819 -0.0695 -0.0537  0.2724
 2984SOL    HW110393   7.469   5.128   2.798 -0.5532 -0.6525 -2.4391
 2984SOL    HW210394   7.397   4.998   2.826  0.0977 -0.6262 -0.5011
 2985SOL     OW10395   5.544   7.823   2.431 -0.1019  0.1603 -0.3705
 2985SOL    HW110396   5.627   7.869   2.444  0.9844 -0.9083 -2.9670
 2985SOL    HW210397   5.568   7.731   2.425 -1.4595 -0.1612 -1.3343
 2986SOL     OW10398   2.991   1.057   2.745 -0.4247 -0.0066  0.2210
 2986SOL    HW110399   2.950   1.061   2.659 -1.1482  0.8131  0.5857
 2986SOL    HW210400   3.084   1.046   2.727 -0.5750  0.1477 -0.6725
 2987SOL     OW10401   4.200   1.809   4.025  0.9592 -0.3697  0.5167
 2987SOL    HW110402   4.126   1.829   4.082  0.2074  1.1076 -0.8984
 2987SOL    HW210403   4.250   1.743   4.073 -0.4971 -0.3647  2.1383
 2988SOL     OW10404   7.412   5.935   9.225 -0.2443  0.5003 -0.0888
 2988SOL    HW110405   7.424   5.856   9.172  1.9381 -0.3355  1.5252
 2988SOL    HW210406   7.327   5.922   9.268 -0.2997 -0.5806 -0.4797
 2989SOL     OW10407   1.404   2.288   8.582 -0.6619 -0.4037  0.1623
 2989SOL    HW110408   1.420   2.371   8.537 -2.2654  0.7858  1.6946
 2989SOL    HW210409   1.466   2.288   8.655 -0.6749 -0.5725  0.1735
 2990SOL     OW10410   0.536   0.043  11.665 -0.1458 -0.3785 -0.2978
 2990SOL    HW110411   0.522   0.097  11.744 -0.4207  0.6731 -1.0475
 2990SOL    HW210412   0.535  -0.047  11.698 -0.6614  0.0208  0.8532
 2991SOL     OW10413   0.388   1.789  10.311  0.2361  0.0478  0.4876
 2991SOL    HW110414   0.297   1.814  10.298  0.2322 -1.3261 -3.4796
 2991SOL    HW210415   0.439   1.864  10.282  0.2991 -0.4466 -0.7272
 2992SOL     OW10416   5.844   4.924   9.966 -0.1950 -0.0581 -0.0372
 2992SOL    HW110417   5.748   4.930   9.968 -0.4135 -0.8709 -3.1633
 2992SOL    HW210418   5.870   4.976   9.890  1.9586  0.6586  1.0976
 2993SOL     OW10419   3.727   5.301  12.280  0.3700 -0.6355  0.0950
 2993SOL    HW110420   3.681   5.228  12.239 -1.6830 -0.4262  1.8625
 2993SOL    HW210421   3.810   5.263  12.309  0.1061 -1.7964 -0.5822
 2994SOL     OW10422   5.103   0.378   4.373  0.2300 -0.9886 -0.2843
 2994SOL    HW110423   5.176   0.322   4.347  0.6466 -1.3781  1.5874
 2994SOL    HW210424   5.139   0.437   4.438 -0.9115 -0.5710  0.0042
 2995SOL     OW10425   6.515   5.832   4.838 -0.7300  0.4205 -0.6526
 2995SOL    HW110426   6.477   5.891   4.903 -0.9061  1.3535 -1.5798
 2995SOL    HW210427   6.595   5.800   4.879 -2.1895 -1.2178  1.1507
 2996SOL     OW10428   2.217   7.458   3.715 -0.6690  0.5846  0.8946
 2996SOL    HW110429   2.126   7.487   3.725 -0.2878  1.1119  3.3340
 2996SOL    HW210430   2.222   7.375   3.762  0.1187  0.5451  0.7647
 2997SOL     OW10431   4.929   7.496  10.323  0.4726  0.0208  0.0164
 2997SOL    HW110432   4.846   7.461  10.356 -0.6963  0.5957 -2.0889
 2997SOL    HW210433   4.975   7.527  10.401 -1.5519  0.2120  1.2123
 2998SOL     OW10434   4.497   0.101   5.663 -0.5618  0.1121 -0.2074
 2998SOL    HW110435   4.499   0.174   5.725  1.1679 -0.3391  0.3033
 2998SOL    HW210436   4.550   0.033   5.703 -1.7413 -1.2875 -0.8972
 2999SOL     OW10437   6.721   1.970   1.398  0.4598 -0.3865 -0.2201
 2999SOL    HW110438   6.758   2.058   1.411 -0.4547  0.1796 -1.2518
 2999SOL    HW210439   6.771   1.934   1.324  1.4190 -1.1051  0.7460
 3000SOL     OW10440   2.094   5.864  10.580  1.2069 -0.1294  0.4563
 3000SOL    HW110441   2.124   5.856  10.490  0.2237  0.2186  0.0755
 3000SOL    HW210442   2.162   5.914  10.625  1.3879  0.2711 -0.2580
 3001SOL     OW10443   4.158   0.123  11.691 -0.4091  0.2161 -0.1853
 3001SOL    HW110444   4.167   0.030  11.674 -0.9120 -0.0941  1.0667
 3001SOL    HW210445   4.230   0.164  11.644 -1.5755 -0.5120 -2.8182
 3002SOL     OW10446   5.149   6.758   7.790  0.2986 -0.1858  0.1306
 3002SOL    HW110447   5.180   6.849   7.787  0.7817 -0.3520  0.0128
 3002SOL    HW210448   5.113   6.748   7.878  1.4372 -0.2592  0.6031
 3003SOL     OW10449   3.677   1.347   0.099 -0.7381  0.0567  0.1508
 3003SOL    HW110450   3.657   1.254   0.084  0.8926 -0.1951 -0.7768
 3003SOL    HW210451   3.675   1.357   0.194 -1.0853 -0.9016  0.2526
 3004SOL     OW10452   4.957   7.959   9.424  0.0666  0.0788  0.0631
 3004SOL    HW110453   4.908   7.978   9.344  0.5841 -1.0864 -0.5714
 3004SOL    HW210454   4.890   7.940   9.490 -0.3532 -0.0190 -0.3856
 3005SOL     OW10455   4.210   2.115   2.727 -0.4367 -0.7176  0.1732
 3005SOL    HW110456   4.169   2.195   2.694  1.2609 -0.7295 -2.1810
 3005SOL    HW210457   4.151   2.085   2.796 -1.1871  2.4724  1.0712
 3006SOL     OW10458   3.186   6.661   8.453 -0.8609  0.4885  0.7879
 3006SOL    HW110459   3.264   6.718   8.455 -0.6769  0.3022 -0.3106
 3006SOL    HW210460   3.114   6.720   8.474 -0.6045  1.0128  0.2463
 3007SOL     OW10461   7.211   4.703  11.792 -0.2454 -0.4222  0.0137
 3007SOL    HW110462   7.130   4.688  11.841 -0.8291  2.5947  0.1521
 3007SOL    HW210463   7.192   4.670  11.704 -1.0652 -1.0948  0.4237
 3008SOL     OW10464   1.355   0.848   6.124 -0.4799  0.1287 -0.3396
 3008SOL    HW110465   1.437   0.803   6.103 -1.6845 -1.6502 -1.5303
 3008SOL    HW210466   1.336   0.900   6.046 -0.0981  1.2189  0.2676
 3009SOL     OW10467   0.623   3.832   9.312  0.3186  0.0014 -0.0306
 3009SOL    HW110468   0.572   3.805   9.235  0.7490 -0.1572 -0.2591
 3009SOL    HW210469   0.562   3.820   9.385 -0.2638  0.6432 -0.3972
 3010SOL     OW10470   0.412   4.244   2.752 -0.3719  0.0402  0.0249
 3010SOL    HW110471   0.438   4.168   2.701  0.2562  0.6950 -0.6414
 3010SOL    HW210472   0.494   4.286   2.777 -0.7267  0.8866 -0.2030
 3011SOL     OW10473   5.650   1.938   0.204 -0.2351  0.0774  0.1745
 3011SOL    HW110474   5.729   1.955   0.256  0.6512 -1.6736 -0.5211
 3011SOL    HW210475   5.596   1.883   0.260  0.0079 -0.4763 -0.1200
 3012SOL     OW10476   6.808   4.057   4.547  0.0282  0.2129 -0.6916
 3012SOL    HW110477   6.900   4.050   4.519  0.1450  0.8732 -0.4917
 3012SOL    HW210478   6.800   3.994   4.618 -0.0830 -0.9649 -1.7163
 3013SOL     OW10479   2.694   5.246  10.523  0.1083 -0.2746  0.2490
 3013SOL    HW110480   2.693   5.319  10.460  0.0298 -1.2446 -0.9134
 3013SOL    HW210481   2.689   5.168  10.468  2.4328 -1.2577  1.3267
 3014SOL     OW10482   5.803   7.220   7.551 -0.4433  0.5340  0.1615
 3014SOL    HW110483   5.756   7.303   7.564 -1.1853  0.0548  0.6287
 3014SOL    HW210484   5.751   7.156   7.599 -0.4318 -0.3925 -1.0207
 3015SOL     OW10485   6.986   0.244   9.073 -0.6041 -0.3008 -0.1464
 3015SOL    HW110486   6.961   0.189   9.147  1.6432 -3.3655 -1.4501
 3015SOL    HW210487   6.948   0.200   8.997 -0.6303  1.2808 -1.0855
 3016SOL     OW10488   3.763   7.052  11.497 -0.3579 -0.6368  0.5294
 3016SOL    HW110489   3.723   6.988  11.439 -0.4097  1.0543 -1.4172
 3016SOL    HW210490   3.689   7.105  11.528  0.0880  1.8787 -2.2965
 3017SOL     OW10491   4.664   2.971  11.808 -0.4827 -0.1090 -0.0101
 3017SOL    HW110492   4.701   2.950  11.722 -3.7694 -0.3832 -1.5245
 3017SOL    HW210493   4.667   3.066  11.813  0.5669 -0.1327  0.0192
 3018SOL     OW10494   4.815   1.408   8.455 -0.2401 -0.4976 -0.2382
 3018SOL    HW110495   4.798   1.470   8.383  0.5410 -0.6693 -0.5880
 3018SOL    HW210496   4.731   1.366   8.470 -0.7095  0.4045 -0.2258
 3019SOL     OW10497   2.469   2.592   0.323 -0.8710 -0.1635  0.2939
 3019SOL    HW110498   2.399   2.535   0.355 -0.8633 -1.3007 -1.5396
 3019SOL    HW210499   2.478   2.660   0.390 -4.1456  0.3992  0.3283
 3020SOL     OW10500   0.039   2.601   7.111  0.0674 -0.4616  0.6072
 3020SOL    HW110501   0.071   2.683   7.149 -0.8135 -0.1064  0.6001
 3020SOL    HW210502  -0.037   2.627   7.059 -1.0239 -1.4537  1.6728
 3021SOL     OW10503   0.772   4.885  11.539 -0.7133  0.9800 -0.6741
 3021SOL    HW110504   0.706   4.821  11.567  0.2968  1.1967  2.7021
 3021SOL    HW210505   0.738   4.969  11.570  0.5656  1.2342  0.1225
 3022SOL     OW10506   4.952   5.343   3.737  0.7243 -0.2520 -0.1449
 3022SOL    HW110507   4.963   5.332   3.831 -1.0325  2.3326  0.4847
 3022SOL    HW210508   4.864   5.310   3.719  1.0207 -0.6675 -0.8661
 3023SOL     OW10509   1.497   6.056  10.561 -0.1981  0.7151  0.2302
 3023SOL    HW110510   1.486   6.086  10.651  0.7066  0.1052  0.5490
 3023SOL    HW210511   1.585   6.083  10.537  0.2651 -0.7575  0.1782
 3024SOL     OW10512   5.367   1.185   4.747 -0.3155  0.2396 -0.4320
 3024SOL    HW110513   5.347   1.093   4.768  0.2029  0.0079 -0.9222
 3024SOL    HW210514   5.451   1.201   4.791 -1.3188  1.0886  1.2948
 3025SOL     OW10515   3.646   3.284   0.308  0.5266  0.0231 -0.2402
 3025SOL    HW110516   3.609   3.302   0.394 -1.3962  2.6325 -1.4705
 3025SOL    HW210517   3.738   3.311   0.315  0.1029  1.2951  0.7204
 3026SOL     OW10518   1.658   7.165   5.196  0.3835  0.0582  0.4021
 3026SOL    HW110519   1.716   7.107   5.244 -0.8520 -2.0165 -0.4832
 3026SOL    HW210520   1.709   7.194   5.120 -0.0088 -2.6927 -1.0241
 3027SOL     OW10521   0.475   0.341   6.257 -0.5633 -0.5908  0.5061
 3027SOL    HW110522   0.407   0.406   6.275 -0.2048  0.0657 -0.4347
 3027SOL    HW210523   0.440   0.289   6.185 -0.5767 -1.0463  0.8343
 3028SOL     OW10524   7.446   5.510   4.383  0.3787  0.4268 -0.1179
 3028SOL    HW110525   7.372   5.482   4.329 -0.1382  1.9127 -0.2192
 3028SOL    HW210526   7.409   5.577   4.441  0.2796 -2.6698  3.8608
 3029SOL     OW10527   7.008   0.324   5.896  0.0577 -0.2381 -0.1777
 3029SOL    HW110528   7.054   0.408   5.894 -0.2565 -0.0787 -1.0893
 3029SOL    HW210529   6.989   0.305   5.804  1.8590 -2.2783 -0.1956
 3030SOL     OW10530   4.462   4.772  11.963 -0.5076 -0.3418 -0.3929
 3030SOL    HW110531   4.422   4.687  11.981 -1.1307 -0.3327 -1.6400
 3030SOL    HW210532   4.404   4.835  12.005 -0.3681 -0.4888  0.0252
 3031SOL     OW10533   0.478   3.846  10.802 -0.1169 -0.0721  0.0571
 3031SOL    HW110534   0.410   3.797  10.756 -0.8245  0.1521  0.8511
 3031SOL    HW210535   0.431   3.907  10.858  0.7307  1.7602 -1.1344
 3032SOL     OW10536   2.554   6.902   3.365 -0.3763 -0.1421 -0.5827
 3032SOL    HW110537   2.568   6.997   3.356 -1.7630 -0.0834 -3.0887
 3032SOL    HW210538   2.555   6.870   3.275 -1.0936 -2.3467  0.1509
 3033SOL     OW10539   7.111   5.655   7.475 -0.2688  0.2500  0.2623
 3033SOL    HW110540   7.177   5.612   7.529  0.8491  1.3787 -0.1726
 3033SOL    HW210541   7.115   5.608   7.391  0.1058  0.4198  0.1830
 3034SOL     OW10542   4.855   0.609  12.111 -0.4071  0.4744 -0.2208
 3034SOL    HW110543   4.801   0.659  12.050  0.4460  0.2524 -1.1984
 3034SOL    HW210544   4.945   0.633  12.089  0.0006 -0.9441 -0.2476
 3035SOL     OW10545   3.952   0.361   5.472 -0.0536 -0.0485 -0.2559
 3035SOL    HW110546   4.022   0.403   5.422  0.1854 -0.0889  0.0442
 3035SOL    HW210547   3.997   0.302   5.532 -0.2685  0.7007  0.6800
 3036SOL     OW10548   2.585   7.504   6.078 -0.5658  0.4123 -0.4561
 3036SOL    HW110549   2.580   7.534   5.987 -1.6424 -1.9589 -1.2680
 3036SOL    HW210550   2.611   7.412   6.071 -1.3508 -0.0110  1.6020
 3037SOL     OW10551   3.083   0.410   3.996  0.6375 -0.1279  0.4008
 3037SOL    HW110552   3.104   0.454   4.078  0.5482  0.2120  0.2407
 3037SOL    HW210553   3.166   0.403   3.951  0.6627 -0.1877  0.4551
 3038SOL     OW10554   6.184   0.151   3.221  0.8117  0.2029  0.1776
 3038SOL    HW110555   6.263   0.116   3.181  1.2360  1.3751 -0.0510
 3038SOL    HW210556   6.153   0.218   3.160 -1.4155 -1.4463 -0.6504
 3039SOL     OW10557   6.863   3.972   7.550  0.1923 -0.0600  0.1696
 3039SOL    HW110558   6.768   3.971   7.557 -0.1361 -0.3874 -2.9607
 3039SOL    HW210559   6.890   4.051   7.597 -1.8282  1.1749 -0.6315
 3040SOL     OW10560   3.773   4.847   9.664 -0.3851 -0.4681  0.5287
 3040SOL    HW110561   3.759   4.823   9.755 -0.4180  0.0918  0.6754
 3040SOL    HW210562   3.686   4.844   9.625 -0.5943  0.7275  0.8753
 3041SOL     OW10563   5.372   5.084   6.270 -0.1608  0.0018  0.3315
 3041SOL    HW110564   5.331   5.005   6.236  1.6780 -0.5961 -0.6439
 3041SOL    HW210565   5.397   5.134   6.192 -1.4584  1.6738  0.9289
 3042SOL     OW10566   2.625   3.427   8.146 -0.2955  0.4362  0.2850
 3042SOL    HW110567   2.650   3.340   8.176 -1.1002  0.0568 -0.0872
 3042SOL    HW210568   2.702   3.481   8.160 -0.1356 -0.0822  1.5493
 3043SOL     OW10569   1.970   5.037   4.889  0.2269 -0.2179  0.5324
 3043SOL    HW110570   1.943   5.050   4.980  2.1382  0.8633  1.0176
 3043SOL    HW210571   1.979   5.126   4.854 -0.0939 -0.6162 -0.5871
 3044SOL     OW10572   6.279   5.761   7.175  0.0623  0.4510 -0.0070
 3044SOL    HW110573   6.295   5.713   7.257 -1.2593 -0.8138 -0.4487
 3044SOL    HW210574   6.287   5.694   7.107  0.4038  1.3433 -0.8640
 3045SOL     OW10575   6.289   3.751  10.016  0.2128  0.4190  0.7505
 3045SOL    HW110576   6.369   3.719   9.974  0.6944  0.8426  1.3267
 3045SOL    HW210577   6.235   3.672  10.027  0.5796  0.1168  0.4280
 3046SOL     OW10578   2.633   4.020   8.654  0.2102  0.4596 -0.1787
 3046SOL    HW110579   2.694   4.000   8.583 -2.1244 -0.7820 -1.9816
 3046SOL    HW210580   2.584   4.096   8.622 -0.6994  0.0391  0.1898
 3047SOL     OW10581   5.495   0.415   2.223  0.3035 -0.3638  0.4063
 3047SOL    HW110582   5.578   0.462   2.221  0.4809 -0.6647  0.6651
 3047SOL    HW210583   5.466   0.420   2.314  1.1431 -2.1623  0.8284
 3048SOL     OW10584   3.600   2.909   3.755  0.8777  0.0802 -0.0127
 3048SOL    HW110585   3.591   2.976   3.822 -0.4916 -0.4253  0.3327
 3048SOL    HW210586   3.668   2.850   3.789  0.9825  0.4344  0.3949
 3049SOL     OW10587   7.000   7.700   3.414 -0.0491 -0.0410 -0.0980
 3049SOL    HW110588   7.061   7.637   3.452 -0.4600 -0.7281 -0.5492
 3049SOL    HW210589   7.045   7.784   3.419  1.2376 -0.6346 -1.0851
 3050SOL     OW10590   3.234   7.114   9.043  0.3918  0.0501  0.0295
 3050SOL    HW110591   3.176   7.093   8.971  0.3814  1.1626 -0.3029
 3050SOL    HW210592   3.308   7.160   9.002  0.1229  1.1862  0.7706
 3051SOL     OW10593   6.095   4.307   1.918 -0.9180  0.2209 -0.5628
 3051SOL    HW110594   6.006   4.335   1.898 -1.4160  0.6029  1.8013
 3051SOL    HW210595   6.152   4.369   1.873 -1.9449  2.3202  0.8810
 3052SOL     OW10596   2.589   2.571   5.937 -0.4930  0.4077  0.1376
 3052SOL    HW110597   2.623   2.499   5.990 -0.1676  0.4626  0.0082
 3052SOL    HW210598   2.522   2.612   5.992  3.5147  4.0072  3.0336
 3053SOL     OW10599   1.565   5.315  12.132 -0.2031 -0.0345 -0.2288
 3053SOL    HW110600   1.536   5.350  12.048 -2.4093 -0.5598  0.2564
 3053SOL    HW210601   1.505   5.243  12.151  1.0530 -0.7765  1.2014
 3054SOL     OW10602   0.586   6.871   8.628 -0.3685  0.0289 -0.1273
 3054SOL    HW110603   0.617   6.931   8.696  0.4317 -0.5779  0.0531
 3054SOL    HW210604   0.665   6.844   8.582 -0.8629  0.0989 -1.0307
 3055SOL     OW10605   6.761   5.812   9.330  0.0562  0.0158 -0.1897
 3055SOL    HW110606   6.767   5.758   9.409  1.0137  0.1635 -0.1474
 3055SOL    HW210607   6.810   5.892   9.351 -2.0101  1.2855  0.0312
 3056SOL     OW10608   0.545   2.352   1.181  0.0152 -0.1702  0.0480
 3056SOL    HW110609   0.487   2.401   1.238  1.3011 -0.1462  1.3962
 3056SOL    HW210610   0.610   2.313   1.240  1.0009 -0.7014 -1.3253
 3057SOL     OW10611   1.285   6.147  10.998 -0.1194 -0.1041 -0.3658
 3057SOL    HW110612   1.333   6.068  11.022 -0.8128 -0.4202  0.0075
 3057SOL    HW210613   1.194   6.118  10.991 -0.7059  1.0323  1.7407
 3058SOL     OW10614   1.075   7.883   6.588  0.3575 -0.0894  0.0292
 3058SOL    HW110615   1.128   7.817   6.632 -0.4194 -0.2542  0.7531
 3058SOL    HW210616   1.097   7.875   6.495 -0.1416 -1.7737  0.0320
 3059SOL     OW10617   6.254   3.462   5.025 -0.5081  0.2155 -0.5412
 3059SOL    HW110618   6.324   3.439   5.086 -0.6311 -0.4503 -0.6493
 3059SOL    HW210619   6.195   3.388   5.026 -0.8714  0.4908 -0.9570
 3060SOL     OW10620   4.222   2.193   7.138  0.3124 -0.2067  0.4610
 3060SOL    HW110621   4.198   2.262   7.076  0.9612  0.9280  1.4427
 3060SOL    HW210622   4.314   2.175   7.118  0.5779  0.2982  1.2029
 3061SOL     OW10623   0.586   2.806   1.687  0.1132  0.3371  0.1183
 3061SOL    HW110624   0.572   2.750   1.611  0.4380  1.0755 -0.4962
 3061SOL    HW210625   0.594   2.894   1.651 -1.5662  0.9640  1.1606
 3062SOL     OW10626   2.864   4.073   4.063 -0.7225  0.4931  0.6441
 3062SOL    HW110627   2.949   4.082   4.020 -1.6058  1.3052 -1.0279
 3062SOL    HW210628   2.843   4.161   4.095 -1.4242  0.5801  0.0023
 3063SOL     OW10629   4.739   6.853   7.984  0.5675  0.1604  0.0699
 3063SOL    HW110630   4.668   6.830   7.925  0.2105 -0.1985  0.6295
 3063SOL    HW210631   4.778   6.932   7.945 -0.3057  0.5220 -0.0987
 3064SOL     OW10632   4.598   6.419   1.140 -0.4981  0.0953 -0.3940
 3064SOL    HW110633   4.561   6.389   1.223 -0.4018 -0.6263 -0.5988
 3064SOL    HW210634   4.583   6.513   1.139  0.6188  0.3200  1.0081
 3065SOL     OW10635   2.088   3.424   3.217  0.3353 -0.0639  0.6303
 3065SOL    HW110636   2.038   3.430   3.136  1.6640 -2.0933 -0.4279
 3065SOL    HW210637   2.025   3.389   3.281 -0.7771  1.7558  0.5959
 3066SOL     OW10638   5.100   5.595   0.083  0.5726 -0.5757 -0.1302
 3066SOL    HW110639   5.166   5.593   0.153  0.9905  0.6359 -0.4577
 3066SOL    HW210640   5.032   5.654   0.116  1.2051  0.7290 -1.0796
 3067SOL     OW10641   3.452   5.698   0.061  0.1715 -0.4674  0.0535
 3067SOL    HW110642   3.378   5.722   0.004  0.1636  0.9236  0.5938
 3067SOL    HW210643   3.518   5.663   0.001  0.1065  0.8184 -0.8296
 3068SOL     OW10644   6.933   5.333   8.416 -0.6371  0.5958  0.1815
 3068SOL    HW110645   6.897   5.291   8.337 -0.9769  0.1271  0.5778
 3068SOL    HW210646   6.882   5.413   8.426  0.2873  1.3401 -0.8130
 3069SOL     OW10647   2.464   3.320   0.239  0.1381  0.0233  0.2345
 3069SOL    HW110648   2.420   3.285   0.161  2.8397  0.0586 -1.4463
 3069SOL    HW210649   2.476   3.413   0.221 -0.0607  0.2386  1.1562
 3070SOL     OW10650   3.999   2.892   4.547 -0.6696  0.5407 -0.4611
 3070SOL    HW110651   4.073   2.952   4.553 -0.4696  0.2101  0.6776
 3070SOL    HW210652   3.936   2.936   4.490 -0.3807  1.6719  0.0789
 3071SOL     OW10653   6.315   5.178   6.624  0.3168  0.1191 -0.1895
 3071SOL    HW110654   6.404   5.182   6.588  0.8969 -0.4191  1.1132
 3071SOL    HW210655   6.315   5.100   6.679 -1.2755 -0.4256 -0.8976
 3072SOL     OW10656   1.360   0.400   1.346 -0.1989  0.5458  0.3262
 3072SOL    HW110657   1.310   0.450   1.281  0.9403  1.4297  0.0990
 3072SOL    HW210658   1.293   0.360   1.402 -1.1720  1.0252 -0.4529
 3073SOL     OW10659   6.512   1.800   1.297  0.2778  0.3651 -0.3399
 3073SOL    HW110660   6.562   1.849   1.362 -2.1785  0.3448  1.7160
 3073SOL    HW210661   6.438   1.856   1.277 -0.3083 -0.7067 -1.2605
 3074SOL     OW10662   3.578   1.038   0.354 -0.0652  0.1657  0.3533
 3074SOL    HW110663   3.591   1.123   0.313 -0.0375  0.4473  0.9426
 3074SOL    HW210664   3.656   0.988   0.331  0.0535  0.3950  0.2563
 3075SOL     OW10665   0.579   4.396   1.200 -0.4003 -0.0788 -0.4607
 3075SOL    HW110666   0.667   4.424   1.226 -1.5691  2.2633  1.3415
 3075SOL    HW210667   0.547   4.345   1.274 -1.6799  1.8723  0.4354
 3076SOL     OW10668   6.689   4.937   6.526 -0.2178  0.4526  0.8876
 3076SOL    HW110669   6.774   4.979   6.516 -0.7752  1.8103  1.5803
 3076SOL    HW210670   6.626   5.009   6.522 -1.4033 -0.5980 -0.2794
 3077SOL     OW10671   4.968   7.791   4.401 -0.6729 -0.0122 -0.0646
 3077SOL    HW110672   5.039   7.739   4.437  0.4616  2.6332  1.8034
 3077SOL    HW210673   4.973   7.777   4.307 -0.2009 -2.8545  0.2886
 3078SOL     OW10674   5.100   7.396   6.861 -0.4026  0.6622 -0.1323
 3078SOL    HW110675   5.134   7.423   6.946  2.8963  1.4831 -1.5253
 3078SOL    HW210676   5.130   7.306   6.851  0.4309  1.0009 -0.8950
 3079SOL     OW10677   5.680   2.496   3.566 -0.1863  0.3743  0.3682
 3079SOL    HW110678   5.699   2.555   3.492 -0.2792  1.5585  1.2582
 3079SOL    HW210679   5.655   2.555   3.637 -1.3840 -0.8258  0.9682
 3080SOL     OW10680   3.980   0.726   2.543 -0.3680 -0.4238  0.6263
 3080SOL    HW110681   3.897   0.771   2.527 -0.6707 -0.8323  1.0112
 3080SOL    HW210682   3.989   0.664   2.471  0.0911  0.2978  0.0487
 3081SOL     OW10683   1.311   3.991  11.092 -0.0445 -0.1422  0.4201
 3081SOL    HW110684   1.221   3.967  11.111  0.4475 -2.1039  0.4966
 3081SOL    HW210685   1.306   4.042  11.012 -1.0946 -1.7798 -0.6166
 3082SOL     OW10686   4.680   4.931  11.687 -0.0901  0.8414 -0.0423
 3082SOL    HW110687   4.689   4.850  11.737  0.3200  0.7708 -0.2257
 3082SOL    HW210688   4.684   5.000  11.754 -2.4493  0.6730  0.3636
 3083SOL     OW10689   6.688   3.075   8.014 -0.0961 -0.2290  0.0007
 3083SOL    HW110690   6.661   3.158   7.976  0.2807  1.4255  3.0528
 3083SOL    HW210691   6.784   3.074   8.005 -0.0647 -0.1350  0.3126
 3084SOL     OW10692   5.847   2.404   8.113  0.7197  0.6238 -0.3045
 3084SOL    HW110693   5.875   2.496   8.120  1.2395  0.4220  0.3389
 3084SOL    HW210694   5.885   2.361   8.190  0.2616 -0.0804 -0.4597
 3085SOL     OW10695   7.447   7.008   2.933 -0.2502 -0.1214 -0.7262
 3085SOL    HW110696   7.487   7.003   3.019 -1.1384 -1.1712 -0.3608
 3085SOL    HW210697   7.436   6.917   2.906 -1.5073  0.1670 -1.2197
 3086SOL     OW10698   0.778   6.733   9.465  0.1476  0.0334 -0.3709
 3086SOL    HW110699   0.840   6.805   9.454 -0.9618  0.9604 -0.7565
 3086SOL    HW210700   0.783   6.711   9.558  0.4299  0.6720 -0.2305
 3087SOL     OW10701   4.778   2.072   2.402 -0.8523 -0.3381  0.1365
 3087SOL    HW110702   4.764   2.116   2.318 -1.2525  0.6204  0.6935
 3087SOL    HW210703   4.867   2.038   2.396 -1.5856 -2.1783 -1.5064
 3088SOL     OW10704   0.942   2.164   0.407  0.1875 -0.0369  0.0048
 3088SOL    HW110705   0.939   2.085   0.352 -0.3008 -0.6623  0.9002
 3088SOL    HW210706   0.850   2.184   0.424  0.3233  0.5184  0.0809
 3089SOL     OW10707   6.042   7.750   2.457 -0.2018 -0.2223  0.2426
 3089SOL    HW110708   5.984   7.689   2.414  0.7073 -1.0493  0.1574
 3089SOL    HW210709   6.117   7.759   2.398  0.2093  0.0582  0.7885
 3090SOL     OW10710   7.717   6.123   4.160  0.2332  0.3250 -0.7228
 3090SOL    HW110711   7.675   6.040   4.135 -2.3146  1.2941  0.0447
 3090SOL    HW210712   7.646   6.174   4.199  2.2310  2.0659  0.7692
 3091SOL     OW10713   3.008   1.809  11.176  0.6133 -1.0621  0.4971
 3091SOL    HW110714   3.102   1.820  11.159  0.2121  0.0511 -1.1849
 3091SOL    HW210715   2.991   1.865  11.252  0.9181  0.6087 -0.5998
 3092SOL     OW10716   0.929   6.531   7.573  0.5052  0.0337  0.1649
 3092SOL    HW110717   0.935   6.589   7.497  1.6751  1.1865  1.0915
 3092SOL    HW210718   1.008   6.478   7.568  0.2425 -0.3584  0.2039
 3093SOL     OW10719   0.893   3.570   2.938 -0.1615  0.2257  0.0741
 3093SOL    HW110720   0.872   3.663   2.946 -2.3542 -0.3363  2.6985
 3093SOL    HW210721   0.980   3.562   2.977 -0.6588  1.0032  1.4181
 3094SOL     OW10722   6.893   0.216   0.970  0.3783 -0.6341 -0.0596
 3094SOL    HW110723   6.900   0.309   0.991  1.5284 -0.3731 -1.4462
 3094SOL    HW210724   6.863   0.176   1.051  1.3274  0.7417  1.0268
 3095SOL     OW10725   0.067   3.180   0.583 -0.3778  0.2003 -0.2848
 3095SOL    HW110726   0.053   3.242   0.654 -0.9107 -1.1696  0.8659
 3095SOL    HW210727  -0.018   3.174   0.539 -0.8563 -0.9920  0.7267
 3096SOL     OW10728   0.599   5.532   4.690  0.0222  0.1716  0.3694
 3096SOL    HW110729   0.652   5.502   4.764 -0.4545 -1.3464  0.1168
 3096SOL    HW210730   0.620   5.625   4.682  3.0501 -0.4325 -0.0258
 3097SOL     OW10731   1.093   4.639   1.025 -0.6403 -0.3259  0.0527
 3097SOL    HW110732   1.174   4.668   0.982 -0.7890  0.2811  0.1711
 3097SOL    HW210733   1.029   4.707   1.004 -0.6655  0.1030  1.3774
 3098SOL     OW10734   7.403   3.521  11.739 -0.3277 -0.5994  0.0267
 3098SOL    HW110735   7.484   3.568  11.755 -0.3096 -1.4159  2.9624
 3098SOL    HW210736   7.429   3.429  11.732 -0.8279 -0.6804 -0.9972
 3099SOL     OW10737   6.164   5.153   7.335  0.3649 -0.3618  0.2208
 3099SOL    HW110738   6.224   5.213   7.379  0.1593  0.5974 -0.7533
 3099SOL    HW210739   6.087   5.148   7.392  0.5061  0.0703  0.4492
 3100SOL     OW10740   5.360   4.120   7.478 -0.3768 -0.2756  0.2037
 3100SOL    HW110741   5.317   4.205   7.463 -1.5605 -0.9144 -0.1324
 3100SOL    HW210742   5.446   4.143   7.512 -0.4127  1.0830 -0.5407
 3101SOL     OW10743   7.127   1.677   1.283 -0.0876 -0.4448  0.0885
 3101SOL    HW110744   7.176   1.756   1.304  0.5467 -1.4449  2.6730
 3101SOL    HW210745   7.172   1.641   1.206  1.4207  0.1938  0.6411
 3102SOL     OW10746   4.758   5.340   2.138 -0.4435 -0.0925  0.2201
 3102SOL    HW110747   4.824   5.314   2.202 -0.2328 -1.2171 -0.4307
 3102SOL    HW210748   4.738   5.431   2.160  1.3988  0.3118  0.3802
 3103SOL     OW10749   7.890   4.152   8.237 -0.3746  0.5148 -0.0380
 3103SOL    HW110750   7.971   4.127   8.282 -0.9440 -1.2062  0.1211
 3103SOL    HW210751   7.825   4.160   8.307 -0.3916  1.7853 -0.1766
 3104SOL     OW10752   2.402   6.968   2.371  0.0468 -0.2344  0.1173
 3104SOL    HW110753   2.481   6.966   2.425  0.1642  1.0930  0.0223
 3104SOL    HW210754   2.337   7.012   2.426  0.0485  0.7467 -0.6590
 3105SOL     OW10755   0.144   2.866   0.156  0.2791 -0.1146 -0.0509
 3105SOL    HW110756   0.140   2.924   0.232 -1.3582 -1.1281  0.6835
 3105SOL    HW210757   0.210   2.800   0.179 -1.3437 -1.3584  1.2374
 3106SOL     OW10758   0.826   5.923   9.091 -0.4306  0.1999  0.3186
 3106SOL    HW110759   0.877   5.849   9.122 -0.0992  0.0761 -0.5164
 3106SOL    HW210760   0.741   5.913   9.135  1.0490  1.9968  4.0860
 3107SOL     OW10761   2.088   4.387   6.524 -0.4577  0.0082 -0.0755
 3107SOL    HW110762   2.155   4.450   6.497  1.6948 -1.8905  0.5541
 3107SOL    HW210763   2.089   4.392   6.620  2.3706 -3.3692  0.2392
 3108SOL     OW10764   6.080   7.929   7.608  0.4494 -0.0719 -0.2449
 3108SOL    HW110765   6.148   7.969   7.554 -1.2299  0.1744 -2.3431
 3108SOL    HW210766   6.079   7.981   7.688  1.1113  1.4654 -1.1868
 3109SOL     OW10767   6.782   3.770   1.699  0.0546 -0.1873 -0.2690
 3109SOL    HW110768   6.750   3.834   1.762 -1.2100  0.5691 -1.6132
 3109SOL    HW210769   6.719   3.698   1.702 -0.2614  0.0509 -0.9564
 3110SOL     OW10770   2.292   2.087   0.403 -0.1427  0.2547  0.0682
 3110SOL    HW110771   2.300   2.025   0.331 -0.3467  1.4304 -0.9928
 3110SOL    HW210772   2.205   2.071   0.440  0.5753 -1.4407  1.1160
 3111SOL     OW10773   5.834   6.636   7.450  0.1398 -0.7834 -0.5565
 3111SOL    HW110774   5.768   6.605   7.511 -1.7208  2.8275 -0.4810
 3111SOL    HW210775   5.912   6.650   7.503  0.2270 -2.5929 -0.1372
 3112SOL     OW10776   3.935   6.700   2.004  0.2058  0.2243 -0.4534
 3112SOL    HW110777   3.849   6.671   2.031  0.5952 -0.0229  0.5522
 3112SOL    HW210778   3.995   6.631   2.034  0.9926  1.3974  0.7863
 3113SOL     OW10779   6.487   1.799   0.603  0.1735 -0.4660 -0.1111
 3113SOL    HW110780   6.555   1.785   0.670 -1.2067  2.5270  2.1439
 3113SOL    HW210781   6.405   1.781   0.648 -0.7533 -0.0080 -1.5543
 3114SOL     OW10782   5.766   7.140   5.437 -0.8139  0.5407 -0.1416
 3114SOL    HW110783   5.691   7.180   5.480 -1.4740  0.5017 -1.2041
 3114SOL    HW210784   5.841   7.164   5.491 -1.4982  1.2226  0.5262
 3115SOL     OW10785   1.329   1.498   4.947  0.0226  0.1684  0.0975
 3115SOL    HW110786   1.306   1.576   4.996 -1.0609  0.1151 -0.2929
 3115SOL    HW210787   1.245   1.460   4.920  0.5497 -0.4836 -0.7162
 3116SOL     OW10788   4.531   5.285  12.351 -0.3709  0.6548 -0.3758
 3116SOL    HW110789   4.579   5.368  12.359 -1.5255  1.3480 -0.4503
 3116SOL    HW210790   4.584   5.233  12.291  0.8990  0.9288  0.4515
 3117SOL     OW10791   1.204   7.823   0.414  0.3096 -0.2961 -0.0249
 3117SOL    HW110792   1.178   7.834   0.323  0.3947 -0.9216 -0.1343
 3117SOL    HW210793   1.299   7.834   0.414  0.5314 -1.9619 -0.3127
 3118SOL     OW10794   7.140   4.950  12.066 -0.0067  0.2855 -0.0331
 3118SOL    HW110795   7.182   4.929  12.149 -0.6567 -1.0835 -0.0188
 3118SOL    HW210796   7.046   4.948  12.085 -0.1640 -0.2259 -0.8317
 3119SOL     OW10797   0.005   2.429   6.017  0.4279 -0.9117  0.2488
 3119SOL    HW110798   0.075   2.482   6.054 -0.0882 -0.1766  0.1825
 3119SOL    HW210799  -0.052   2.491   5.974  1.2125 -1.7681 -2.1834
 3120SOL     OW10800   4.383   1.622   3.606  0.2348 -0.1752  0.2999
 3120SOL    HW110801   4.407   1.695   3.663  0.7698 -0.0805 -0.0395
 3120SOL    HW210802   4.287   1.619   3.611  0.2028  0.5450  0.3352
 3121SOL     OW10803   6.901   3.264   3.027 -0.2869 -0.1654 -0.7814
 3121SOL    HW110804   6.920   3.231   2.940  1.3682 -1.1656 -0.1105
 3121SOL    HW210805   6.918   3.359   3.021  1.5011 -0.4662 -1.1766
 3122SOL     OW10806   0.497   1.975   5.347  0.3769  0.5409 -0.2605
 3122SOL    HW110807   0.525   1.911   5.282 -0.3994  0.7229 -0.7873
 3122SOL    HW210808   0.551   2.052   5.329  1.5643 -0.0486  0.5988
 3123SOL     OW10809   0.831   0.247   8.203 -0.0373  0.3906 -0.3222
 3123SOL    HW110810   0.900   0.183   8.217  0.4221  1.2670  1.6754
 3123SOL    HW210811   0.844   0.277   8.113  2.8101  1.2479  0.2938
 3124SOL     OW10812   1.006   0.890   5.474  0.1973  0.1277 -0.2152
 3124SOL    HW110813   0.953   0.908   5.552  0.1134 -1.1360  0.0452
 3124SOL    HW210814   1.078   0.952   5.480 -0.2567  0.6095  0.4308
 3125SOL     OW10815   3.769   1.721   4.235 -0.5634  0.5018  0.2921
 3125SOL    HW110816   3.729   1.705   4.149  1.1964  0.3572 -0.5428
 3125SOL    HW210817   3.737   1.650   4.290 -0.0739 -0.6272 -0.8356
 3126SOL     OW10818   1.996   7.109   6.611 -0.2660  0.1229 -0.0544
 3126SOL    HW110819   2.012   7.084   6.520  0.0387 -0.8236  0.2486
 3126SOL    HW210820   2.078   7.149   6.639  0.3481 -1.3672  0.3781
 3127SOL     OW10821   2.027   4.607   6.761  0.4751  0.1308 -0.3234
 3127SOL    HW110822   1.996   4.533   6.813  0.4468  1.4241  1.6043
 3127SOL    HW210823   1.997   4.684   6.808 -1.9684  1.4992 -3.7364
 3128SOL     OW10824   5.096   5.947  10.560 -0.5365 -0.0831 -0.1531
 3128SOL    HW110825   5.004   5.955  10.584 -1.3510 -2.1309 -2.1743
 3128SOL    HW210826   5.106   5.855  10.535  2.0690  0.0973 -0.0221
 3129SOL     OW10827   7.716   5.911   8.309  0.1288 -0.2084 -0.1161
 3129SOL    HW110828   7.632   5.932   8.268  0.1092  1.5371  0.7491
 3129SOL    HW210829   7.692   5.864   8.389 -0.1513  1.4749  0.8419
 3130SOL     OW10830   1.760   5.083   2.271 -0.1585 -0.4648  0.2864
 3130SOL    HW110831   1.712   5.159   2.305 -0.7951 -0.4470 -0.6030
 3130SOL    HW210832   1.813   5.053   2.344  0.2890  0.9807  0.6034
 3131SOL     OW10833   2.036   4.322   2.668  0.0501  0.4366  0.3482
 3131SOL    HW110834   1.964   4.313   2.605 -0.1316  1.0222  0.4657
 3131SOL    HW210835   2.058   4.415   2.666 -0.5030  0.6105  1.7355
 3132SOL     OW10836   3.319   6.227  10.751  0.3590  0.1309  0.4974
 3132SOL    HW110837   3.406   6.192  10.734  0.9133  1.7124 -0.0845
 3132SOL    HW210838   3.318   6.247  10.844  0.3971 -0.4567  0.6243
 3133SOL     OW10839   3.310   7.645   9.700 -0.7042  0.1160 -0.1164
 3133SOL    HW110840   3.281   7.581   9.635 -1.1704 -0.4064  0.5973
 3133SOL    HW210841   3.353   7.593   9.768 -1.5424  0.4871  0.7282
 3134SOL     OW10842   4.932   2.714  11.062 -0.1870 -0.1810  0.1625
 3134SOL    HW110843   4.916   2.733  10.969  1.1763 -1.0450 -0.2761
 3134SOL    HW210844   5.027   2.717  11.071 -0.3117  0.1173  1.6028
 3135SOL     OW10845   0.962   5.223  10.296 -0.2889 -0.6969  0.9198
 3135SOL    HW110846   0.985   5.316  10.294 -0.5738 -0.5000 -3.2872
 3135SOL    HW210847   1.042   5.178  10.267 -0.6758 -1.5869  1.1965
 3136SOL     OW10848   2.964   4.281   1.553 -0.2287 -0.2462 -0.1068
 3136SOL    HW110849   2.958   4.371   1.585 -0.4889 -0.5705  0.8186
 3136SOL    HW210850   3.047   4.277   1.506 -0.5748  0.6685 -0.8134
 3137SOL     OW10851   6.654   5.636   0.426  0.0728  0.0627  0.1006
 3137SOL    HW110852   6.588   5.653   0.494 -0.6685  2.6918 -1.1269
 3137SOL    HW210853   6.621   5.684   0.349  1.0852 -2.4579 -2.0315
 3138SOL     OW10854   6.654   0.617   8.367 -0.0794 -0.0674 -0.4692
 3138SOL    HW110855   6.643   0.583   8.278 -0.1667  0.1356 -0.5365
 3138SOL    HW210856   6.659   0.539   8.422 -1.4827 -0.1861 -0.4705
 3139SOL     OW10857   5.614   5.949   2.295  0.5227 -0.2305 -0.5357
 3139SOL    HW110858   5.629   5.874   2.352 -0.5929 -0.8078 -0.9814
 3139SOL    HW210859   5.581   6.017   2.353  0.7542 -0.3480 -0.2617
 3140SOL     OW10860   0.861   0.562   4.934  0.2813 -0.5086 -0.4921
 3140SOL    HW110861   0.827   0.473   4.945 -0.8284 -0.1355 -0.8073
 3140SOL    HW210862   0.924   0.555   4.862  1.6082 -1.3845  0.7006
 3141SOL     OW10863   7.895   1.701   0.960 -0.1324  0.3989  0.2285
 3141SOL    HW110864   7.898   1.669   0.869 -1.0622 -1.8253  0.8964
 3141SOL    HW210865   7.966   1.655   1.004  0.1974  1.3277  0.6810
 3142SOL     OW10866   6.032   6.101   3.947 -0.5442  0.4667  0.4184
 3142SOL    HW110867   6.096   6.093   3.877  0.9031  1.1260  1.6021
 3142SOL    HW210868   6.065   6.043   4.016 -1.2475  0.7795  1.0356
 3143SOL     OW10869   4.643   3.241   1.227 -0.3622 -0.2672 -0.6467
 3143SOL    HW110870   4.717   3.182   1.241  0.9204  1.7701  1.9314
 3143SOL    HW210871   4.579   3.215   1.293 -1.5361 -1.2573 -2.1069
 3144SOL     OW10872   0.689   7.962   4.581  0.0386 -0.0020  0.3347
 3144SOL    HW110873   0.640   7.887   4.548  0.6346 -0.3658  0.2679
 3144SOL    HW210874   0.628   8.006   4.640 -0.4495 -0.3149  0.0671
 3145SOL     OW10875   6.808   0.095   4.878  0.1685 -0.3589  0.2243
 3145SOL    HW110876   6.849   0.135   4.954 -0.8117  0.4450  0.3629
 3145SOL    HW210877   6.714   0.112   4.890  0.0569  0.7568 -1.6643
 3146SOL     OW10878   2.611   5.058   7.668  0.5095 -0.8401 -0.1785
 3146SOL    HW110879   2.691   5.107   7.646 -1.0970  1.8948 -0.4646
 3146SOL    HW210880   2.575   5.032   7.584  0.7594 -1.5116 -0.0816
 3147SOL     OW10881   6.003   1.170   8.726 -0.9187  0.2804 -1.0475
 3147SOL    HW110882   6.046   1.115   8.791 -2.3138  0.5786  0.1936
 3147SOL    HW210883   5.919   1.193   8.766 -0.7883  2.5251 -1.9244
 3148SOL     OW10884   1.766   0.715   6.604 -0.2630 -0.0588  0.6480
 3148SOL    HW110885   1.751   0.806   6.631 -1.2026  0.2886 -0.8989
 3148SOL    HW210886   1.833   0.683   6.664 -1.0095  1.1669  2.2275
 3149SOL     OW10887   5.620   3.695   3.987  0.0880 -0.1207  0.6247
 3149SOL    HW110888   5.587   3.664   3.902 -0.0252 -1.7871  1.2453
 3149SOL    HW210889   5.602   3.789   3.986  1.1873  0.1559 -1.7040
 3150SOL     OW10890   0.983   1.057   7.866  0.4261 -0.0239  0.3708
 3150SOL    HW110891   0.996   1.119   7.937  0.5640 -0.3546  0.6402
 3150SOL    HW210892   0.966   0.973   7.910 -1.5197  0.1472  0.0443
 3151SOL     OW10893   6.326   5.813   0.345  0.1864  0.4587 -1.1971
 3151SOL    HW110894   6.250   5.861   0.379  1.0842  1.9250 -1.1814
 3151SOL    HW210895   6.384   5.803   0.420  0.4968  0.3474 -1.4498
 3152SOL     OW10896   7.246   7.583   2.268  0.6767  0.0081 -0.0416
 3152SOL    HW110897   7.332   7.608   2.301  0.1474 -0.2773  1.6672
 3152SOL    HW210898   7.263   7.533   2.188  2.1387 -0.8873  0.8022
 3153SOL     OW10899   5.450   5.191   5.363 -0.0463  0.3306  0.1286
 3153SOL    HW110900   5.486   5.277   5.384  0.5157 -0.1002  0.9828
 3153SOL    HW210901   5.512   5.154   5.300  0.3273  0.1010  0.6271
 3154SOL     OW10902   3.993   5.707   4.300 -0.2821 -0.2800  0.1581
 3154SOL    HW110903   4.034   5.693   4.385  0.6624 -1.1793 -0.4220
 3154SOL    HW210904   4.048   5.773   4.258  0.8164 -1.6888 -0.7313
 3155SOL     OW10905   0.293   1.973  10.766  0.5591  0.1593 -0.2635
 3155SOL    HW110906   0.320   2.002  10.678 -0.5523  0.0081 -0.6705
 3155SOL    HW210907   0.373   1.936  10.804  1.3130  1.1537 -0.8171
 3156SOL     OW10908   4.313   7.178  10.273  0.0638  0.0421 -0.5189
 3156SOL    HW110909   4.346   7.132  10.196 -0.7277 -0.3699 -0.6200
 3156SOL    HW210910   4.282   7.262  10.240  0.7353  0.3155 -0.4683
 3157SOL     OW10911   0.075   3.330   8.214 -0.0396 -0.7708  0.0851
 3157SOL    HW110912   0.126   3.353   8.291  0.7121 -0.6790 -0.4317
 3157SOL    HW210913   0.054   3.414   8.173 -1.1449 -0.7685  0.6243
 3158SOL     OW10914   5.629   0.676   3.609 -0.1435 -0.0798  0.0925
 3158SOL    HW110915   5.690   0.665   3.536 -1.8359  0.3675 -1.4806
 3158SOL    HW210916   5.580   0.594   3.612 -2.2487  1.0017 -1.4713
 3159SOL     OW10917   4.471   7.557   3.580  0.1322  0.1496  0.2303
 3159SOL    HW110918   4.483   7.496   3.653  0.3944 -0.0350  0.0347
 3159SOL    HW210919   4.558   7.595   3.566  0.8025 -1.9110 -1.8443
 3160SOL     OW10920   4.915   0.027  12.024  0.0423 -0.2135 -0.0299
 3160SOL    HW110921   4.888   0.118  12.010 -0.7211 -0.6154 -1.2771
 3160SOL    HW210922   4.945   0.025  12.115 -0.8650  1.0539  0.3217
 3161SOL     OW10923   4.692   0.994   4.143  0.1544 -0.2790 -0.1345
 3161SOL    HW110924   4.773   0.942   4.152  0.6418  0.7466  1.9296
 3161SOL    HW210925   4.683   1.007   4.049  1.0542 -2.4551 -0.6022
 3162SOL     OW10926   2.206   7.745   0.867  0.1457  0.3017  0.3363
 3162SOL    HW110927   2.158   7.715   0.790 -1.5726 -0.4864  1.6534
 3162SOL    HW210928   2.240   7.665   0.908  0.0675  0.6054  1.0131
 3163SOL     OW10929   5.720   4.875   3.053  0.0694  0.2342  0.4636
 3163SOL    HW110930   5.657   4.937   3.089 -1.3443 -1.1810  0.5459
 3163SOL    HW210931   5.690   4.860   2.963  0.8690  0.2599  0.1787
 3164SOL     OW10932   0.289   5.331   7.496  0.0526  0.0357  0.4435
 3164SOL    HW110933   0.242   5.413   7.483 -1.2075 -0.1245  3.3576
 3164SOL    HW210934   0.337   5.342   7.578  2.4030 -1.0926 -0.6584
 3165SOL     OW10935   0.108   1.083   3.840 -0.4740 -0.4779 -0.1182
 3165SOL    HW110936   0.083   1.059   3.751  1.0304 -0.6895 -0.5126
 3165SOL    HW210937   0.196   1.121   3.831 -0.7560  0.5292  1.1401
 3166SOL     OW10938   3.554   7.531   7.034 -0.3682  0.3477  0.3100
 3166SOL    HW110939   3.565   7.438   7.013  1.4107  0.1538  1.8439
 3166SOL    HW210940   3.604   7.577   6.967 -0.4693  0.1444  0.0949
 3167SOL     OW10941   4.166   1.094   0.774  0.2085 -0.9745  0.4442
 3167SOL    HW110942   4.212   1.021   0.815  1.3918 -1.4075 -1.5293
 3167SOL    HW210943   4.229   1.132   0.713 -0.4486  1.5910  1.2323
 3168SOL     OW10944   7.724   2.312   3.488  0.1601  0.0367 -0.1061
 3168SOL    HW110945   7.663   2.378   3.457  0.2945  1.0460  1.6399
 3168SOL    HW210946   7.673   2.230   3.487 -0.2084  0.2616 -1.6596
 3169SOL     OW10947   1.661   0.423   0.033 -0.3659  0.2082 -0.2313
 3169SOL    HW110948   1.628   0.435  -0.056 -1.1150  0.9672  0.1320
 3169SOL    HW210949   1.594   0.463   0.088  0.0770 -0.2818  0.6774
 3170SOL     OW10950   0.125   6.785   7.736  0.6138 -0.3270 -0.4001
 3170SOL    HW110951   0.065   6.861   7.733  1.1878  0.1002 -2.5483
 3170SOL    HW210952   0.184   6.805   7.809 -1.9217 -0.8919  1.9964
 3171SOL     OW10953   4.985   5.507   1.320  0.5193 -0.1784  0.1092
 3171SOL    HW110954   4.988   5.472   1.231 -0.6157  0.9131 -0.3932
 3171SOL    HW210955   4.969   5.601   1.308 -0.1668 -0.1009  1.4594
 3172SOL     OW10956   4.240   6.717   9.527 -0.0813  0.1604 -0.6448
 3172SOL    HW110957   4.196   6.635   9.505  0.6553  0.2873 -2.7793
 3172SOL    HW210958   4.240   6.768   9.446  1.2213  1.4513  0.1078
 3173SOL     OW10959   2.483   1.974  12.300 -0.2072 -0.3080 -0.1546
 3173SOL    HW110960   2.395   2.000  12.328  0.3974  0.5564  1.0494
 3173SOL    HW210961   2.498   2.025  12.220 -2.1594 -3.1999 -2.6277
 3174SOL     OW10962   6.198   2.523   8.825 -0.7181  0.2080 -0.0925
 3174SOL    HW110963   6.103   2.535   8.829 -0.7253  0.2370 -0.3347
 3174SOL    HW210964   6.219   2.523   8.731 -0.3468  1.2498 -0.0282
 3175SOL     OW10965   6.800   0.401   2.340 -0.1692 -0.4238  0.6563
 3175SOL    HW110966   6.873   0.388   2.400  0.5863  1.3924  0.1851
 3175SOL    HW210967   6.841   0.406   2.254 -1.0582 -1.1898  0.1771
 3176SOL     OW10968   0.292   3.730  10.629  0.1309 -0.4483  0.0387
 3176SOL    HW110969   0.268   3.637  10.629 -2.0558  0.0536 -0.1771
 3176SOL    HW210970   0.361   3.737  10.563  2.1932 -2.2891  1.8530
 3177SOL     OW10971   0.321   2.746   6.847  0.0434  0.0386 -0.2778
 3177SOL    HW110972   0.336   2.664   6.894  0.7759 -0.4902 -1.3926
 3177SOL    HW210973   0.408   2.771   6.815 -0.6924 -0.8054 -3.2426
 3178SOL     OW10974   5.526   5.539  11.273  0.0095  0.1208  0.4740
 3178SOL    HW110975   5.603   5.488  11.300 -0.3790  0.0684  1.5541
 3178SOL    HW210976   5.474   5.478  11.221  0.5854  0.0852 -0.0662
 3179SOL     OW10977   0.766   1.645  11.672 -0.2143  0.2474  0.3966
 3179SOL    HW110978   0.810   1.695  11.603  1.5377  0.5501  1.6510
 3179SOL    HW210979   0.769   1.554  11.642 -0.7132  0.5281 -0.5300
 3180SOL     OW10980   6.895   7.077   2.743 -0.0911  0.0209  0.0935
 3180SOL    HW110981   6.887   6.994   2.791  0.7638 -0.3655 -0.3905
 3180SOL    HW210982   6.877   7.144   2.808  2.3147 -0.4286  1.3676
 3181SOL     OW10983   7.630   4.561   7.312 -0.6346 -0.1996 -0.7904
 3181SOL    HW110984   7.588   4.501   7.251 -2.4492  0.2061  0.0041
 3181SOL    HW210985   7.592   4.540   7.397  0.8875  0.1183  0.0204
 3182SOL     OW10986   7.899   4.052  12.375 -0.1701 -0.2141 -0.0557
 3182SOL    HW110987   7.982   4.005  12.373 -0.7806 -1.3003 -1.5318
 3182SOL    HW210988   7.906   4.115  12.302 -1.2411 -1.4470 -1.2650
 3183SOL     OW10989   2.716   2.527   1.189 -0.4309 -0.1990  0.0853
 3183SOL    HW110990   2.740   2.522   1.281 -1.9329 -0.6246  0.4876
 3183SOL    HW210991   2.766   2.458   1.147  0.5181  0.2147  0.5102
 3184SOL     OW10992   4.283   1.068   6.226  0.5502 -0.3186 -0.1745
 3184SOL    HW110993   4.349   1.137   6.213  0.9386  0.1704  3.3690
 3184SOL    HW210994   4.297   1.008   6.153  2.5685  1.5349 -1.4630
 3185SOL     OW10995   3.053   2.809   2.242 -0.6932 -0.1874 -0.0530
 3185SOL    HW110996   3.118   2.749   2.206  0.0579  1.7414 -2.2450
 3185SOL    HW210997   2.982   2.810   2.177  0.3429  2.8412 -1.3567
 3186SOL     OW10998   2.085   2.116   3.965  0.5281 -0.6346 -0.1652
 3186SOL    HW110999   2.054   2.037   3.920 -0.1186 -0.6180  0.2441
 3186SOL    HW211000   2.132   2.165   3.897 -1.5171  0.0016 -1.1896
 3187SOL     OW11001   5.660   2.748   5.556 -0.2274 -0.5612  0.0284
 3187SOL    HW111002   5.680   2.672   5.502 -0.7480 -0.0865 -0.8623
 3187SOL    HW211003   5.734   2.807   5.544 -1.6784  0.9147 -2.7521
 3188SOL     OW11004   6.319   5.347   7.457 -0.3393  0.2875  0.0445
 3188SOL    HW111005   6.260   5.370   7.529 -0.4001 -1.2901  0.5250
 3188SOL    HW211006   6.378   5.282   7.495  0.4744  0.4020 -0.9848
 3189SOL     OW11007   4.142   5.769  10.507 -0.0799  0.0808 -0.4806
 3189SOL    HW111008   4.113   5.845  10.457  1.8429  1.2851  0.1270
 3189SOL    HW211009   4.217   5.735  10.457 -0.7413 -1.2812 -0.5979
 3190SOL     OW11010   7.562   6.972   8.052  0.5203 -0.1873 -0.0493
 3190SOL    HW111011   7.582   6.879   8.063  1.0036  0.0550  1.2244
 3190SOL    HW211012   7.567   6.986   7.957 -0.9413 -1.7563 -0.4176
 3191SOL     OW11013   7.579   6.770  12.418  0.1990 -0.0091  0.3915
 3191SOL    HW111014   7.528   6.770  12.499 -1.3310  0.0396 -0.5275
 3191SOL    HW211015   7.670   6.781  12.446 -0.1938 -0.9245  2.1451
 3192SOL     OW11016   0.915   0.276   4.760 -0.1287 -0.0710 -0.3222
 3192SOL    HW111017   0.987   0.227   4.720  1.0756  1.7462 -0.5080
 3192SOL    HW211018   0.843   0.268   4.698  1.0367  0.9331 -1.8861
 3193SOL     OW11019   2.371   5.188   1.409 -0.0722 -0.2328  0.2683
 3193SOL    HW111020   2.290   5.210   1.363  0.9139  1.9068 -0.6012
 3193SOL    HW211021   2.434   5.167   1.339  0.2660 -1.3622  0.8953
 3194SOL     OW11022   5.676   2.508   7.477 -0.0612 -0.0696  0.0421
 3194SOL    HW111023   5.705   2.432   7.427 -2.6602 -1.0283 -0.1537
 3194SOL    HW211024   5.657   2.574   7.411  0.1560  0.0137  0.0611
 3195SOL     OW11025   4.102   7.793   9.486  0.1820  0.4568 -0.0386
 3195SOL    HW111026   4.047   7.736   9.541 -1.9174  2.6843  0.3824
 3195SOL    HW211027   4.183   7.803   9.535 -0.1476 -0.6500  0.7703
 3196SOL     OW11028   5.247   3.904  10.584  0.1445  0.0895 -0.1536
 3196SOL    HW111029   5.193   3.890  10.662  2.1658  1.5597  1.6722
 3196SOL    HW211030   5.204   3.855  10.515 -2.5284 -0.1843  1.5575
 3197SOL     OW11031   6.380   0.807   4.387 -0.2693  0.6851 -0.3348
 3197SOL    HW111032   6.392   0.856   4.306 -0.5169  1.7300  0.2373
 3197SOL    HW211033   6.314   0.742   4.366  0.9872 -0.2732 -1.4644
 3198SOL     OW11034   5.042   0.481   4.907  1.0196  0.3540  0.3967
 3198SOL    HW111035   5.045   0.574   4.930  0.1783  0.6392 -0.5207
 3198SOL    HW211036   4.950   0.457   4.918  1.6620 -1.1415  3.3089
 3199SOL     OW11037   4.823   2.381   4.908 -0.4466 -0.1357 -0.6974
 3199SOL    HW111038   4.809   2.412   4.998  0.7068  1.7567 -1.1041
 3199SOL    HW211039   4.735   2.368   4.873 -0.9803  1.3650 -0.0089
 3200SOL     OW11040   7.529   3.558   3.432 -0.3624 -0.0641 -0.0836
 3200SOL    HW111041   7.580   3.529   3.508 -1.4920 -2.0217  0.0009
 3200SOL    HW211042   7.588   3.547   3.358  0.1955  0.2299  0.3064
 3201SOL     OW11043   7.495   7.713   6.787  0.7516  0.3613 -0.2568
 3201SOL    HW111044   7.560   7.739   6.721  1.5913 -0.5909  0.1509
 3201SOL    HW211045   7.545   7.660   6.849  0.0522  1.4974  1.3400
 3202SOL     OW11046   1.162   4.696   8.493 -0.4442  0.3512  0.4767
 3202SOL    HW111047   1.134   4.783   8.465  0.0107  0.4971  0.4643
 3202SOL    HW211048   1.090   4.638   8.467  0.0744  0.4266 -1.2853
 3203SOL     OW11049   4.438   6.518   0.255 -0.4621 -0.6633 -0.6853
 3203SOL    HW111050   4.514   6.575   0.242  0.6357 -2.3403 -2.1962
 3203SOL    HW211051   4.364   6.570   0.224 -0.1277  1.3231  1.5994
 3204SOL     OW11052   5.161   2.194   6.298  0.0934 -0.0922  0.0180
 3204SOL    HW111053   5.138   2.110   6.338 -2.7140 -0.1465 -1.5066
 3204SOL    HW211054   5.124   2.260   6.356 -0.0333 -0.0130 -0.1509
 3205SOL     OW11055   6.493   6.080  10.241 -0.7171 -0.1356 -0.9639
 3205SOL    HW111056   6.410   6.034  10.227 -0.1094 -1.7615  0.4075
 3205SOL    HW211057   6.546   6.018  10.293  0.5531  1.6938  0.0232
 3206SOL     OW11058   2.005   2.897   0.566  0.2831  0.2697  0.8560
 3206SOL    HW111059   2.003   2.936   0.653  0.3309 -0.9408  1.4155
 3206SOL    HW211060   2.072   2.829   0.571 -0.6361 -0.7034  0.2688
 3207SOL     OW11061   3.691   7.111  11.868  0.3608  0.0583  0.1139
 3207SOL    HW111062   3.763   7.117  11.931  2.1503  1.8930 -1.9141
 3207SOL    HW211063   3.703   7.026  11.826  2.4637  0.9605 -1.3009
 3208SOL     OW11064   6.411   5.721   4.030  0.2227  0.1018 -0.2488
 3208SOL    HW111065   6.463   5.782   3.978 -0.5403  0.5581 -0.4919
 3208SOL    HW211066   6.322   5.733   3.999 -0.1534 -0.0943  0.7117
 3209SOL     OW11067   3.128   7.393   9.127 -0.2786 -0.4837  0.1821
 3209SOL    HW111068   3.131   7.316   9.184  1.4974 -0.3061  0.3720
 3209SOL    HW211069   3.141   7.358   9.039 -0.3842 -0.4906  0.1686
 3210SOL     OW11070   1.769   5.100  11.770  0.4378 -0.4039 -0.3889
 3210SOL    HW111071   1.711   5.151  11.714  0.3321 -1.6393 -1.4440
 3210SOL    HW211072   1.712   5.068  11.840 -0.0787 -1.2234 -1.1635
 3211SOL     OW11073   4.213   0.494   5.307  0.2622 -0.3378  0.4055
 3211SOL    HW111074   4.158   0.542   5.245 -0.9932 -1.4325  0.6236
 3211SOL    HW211075   4.212   0.404   5.275  0.1380 -0.7906  1.6382
 3212SOL     OW11076   6.252   2.650   7.407 -0.2538  0.4163 -0.3813
 3212SOL    HW111077   6.242   2.678   7.498 -0.6517 -2.3172  0.5204
 3212SOL    HW211078   6.162   2.650   7.372 -0.1157  1.3437 -0.7625
 3213SOL     OW11079   4.272   7.451   9.315  0.6140  0.2063  0.1562
 3213SOL    HW111080   4.344   7.399   9.350 -0.3759 -0.2902  1.5308
 3213SOL    HW211081   4.308   7.538   9.303  2.1046 -0.5776 -1.5092
 3214SOL     OW11082   4.907   7.665   9.889  0.6730  0.4463 -0.0466
 3214SOL    HW111083   4.966   7.699   9.822 -0.8932  1.4667 -0.9911
 3214SOL    HW211084   4.846   7.737   9.905 -1.4577 -1.1548 -0.5214
 3215SOL     OW11085   6.910   7.313   6.004  0.2377 -0.2064 -0.3779
 3215SOL    HW111086   6.820   7.312   6.036 -0.3040  0.4799 -1.8158
 3215SOL    HW211087   6.960   7.359   6.072 -0.7063  0.4020 -0.0878
 3216SOL     OW11088   7.366   6.331  10.219  0.3612 -0.2360 -0.1549
 3216SOL    HW111089   7.362   6.245  10.261  3.4479 -0.5756 -0.2729
 3216SOL    HW211090   7.312   6.322  10.140 -1.0869 -1.3374  0.9126
 3217SOL     OW11091   1.681   1.216  10.065  0.6626  0.1090  0.4210
 3217SOL    HW111092   1.731   1.135  10.079 -0.4821 -1.4129 -3.1784
 3217SOL    HW211093   1.739   1.271  10.012  0.7990  1.0064  1.4626
 3218SOL     OW11094   3.324   6.567  12.241  0.2951 -0.0198  0.3810
 3218SOL    HW111095   3.247   6.602  12.284 -0.0626  0.0176 -0.2819
 3218SOL    HW211096   3.311   6.472  12.240  1.4794 -0.2716  2.5957
 3219SOL     OW11097   7.232   2.448   6.450 -0.1569 -0.1111 -0.1084
 3219SOL    HW111098   7.271   2.362   6.465  0.5261  0.2555  0.2470
 3219SOL    HW211099   7.246   2.464   6.356 -1.2653 -0.8522 -0.4206
 3220SOL     OW11100   3.448   7.348   0.654  0.0122 -0.0478 -0.4845
 3220SOL    HW111101   3.451   7.405   0.730  1.3540 -0.0746 -0.4952
 3220SOL    HW211102   3.377   7.384   0.600  0.1366  0.9557  0.0007
 3221SOL     OW11103   6.360   6.439   8.861 -0.0731 -0.0892 -0.3347
 3221SOL    HW111104   6.291   6.373   8.870 -0.7585  0.4685 -1.2556
 3221SOL    HW211105   6.372   6.473   8.949 -0.6705 -0.5090 -0.0832
 3222SOL     OW11106   2.899   1.950   1.418  0.2346 -0.0757 -0.1162
 3222SOL    HW111107   2.886   2.006   1.495  0.6695 -0.6597  0.3964
 3222SOL    HW211108   2.958   1.881   1.449  2.1250  0.8294 -1.5316
 3223SOL     OW11109   6.635   5.022  12.382 -0.1512 -0.0579 -0.2220
 3223SOL    HW111110   6.596   4.943  12.345  0.9403  0.4901 -2.8124
 3223SOL    HW211111   6.565   5.087  12.379  0.1919  0.2770 -2.5611
 3224SOL     OW11112   1.925   4.940  11.542  0.5055  0.0412  0.3231
 3224SOL    HW111113   1.974   4.993  11.478  1.5781  0.1470  1.1983
 3224SOL    HW211114   1.855   4.997  11.573 -0.6021 -0.3042 -1.3780
 3225SOL     OW11115   3.552   3.197  11.530 -0.3490  0.1076  0.1389
 3225SOL    HW111116   3.467   3.155  11.517 -0.4659  0.6816 -1.1941
 3225SOL    HW211117   3.610   3.126  11.558 -0.8989 -0.6311 -0.5439
 3226SOL     OW11118   4.723   7.680   3.573  0.0504 -0.0264 -0.4184
 3226SOL    HW111119   4.757   7.695   3.484  1.3498 -0.4097 -0.0123
 3226SOL    HW211120   4.746   7.760   3.620  0.8209 -0.4726 -0.0212
 3227SOL     OW11121   6.363   2.026   3.779  0.2670  0.6825  0.5757
 3227SOL    HW111122   6.407   2.111   3.774 -1.2940  1.4946 -1.9105
 3227SOL    HW211123   6.414   1.969   3.721 -1.2747  1.3913 -1.6356
 3228SOL     OW11124   2.624   1.036   1.018 -0.2687  0.2424 -0.5761
 3228SOL    HW111125   2.599   1.062   0.929 -0.1283 -1.2675 -1.0866
 3228SOL    HW211126   2.717   1.015   1.011 -0.3218 -0.1465 -0.1353
 3229SOL     OW11127   2.022   5.185   8.046 -0.1617 -0.1219  0.7648
 3229SOL    HW111128   2.017   5.106   8.099 -2.1787 -0.1204  0.6697
 3229SOL    HW211129   1.980   5.161   7.963  1.1598  0.4444 -0.1035
 3230SOL     OW11130   7.055   0.888   5.718 -0.1827 -0.0279 -0.3900
 3230SOL    HW111131   7.000   0.898   5.795  0.2306 -2.6418  0.3591
 3230SOL    HW211132   6.994   0.895   5.644 -1.3416 -1.4705  0.3642
 3231SOL     OW11133   7.886   1.224  11.315 -0.4690 -0.3304 -0.5365
 3231SOL    HW111134   7.924   1.245  11.400  0.1895 -0.5669 -0.7687
 3231SOL    HW211135   7.961   1.202  11.259 -0.8458  0.3292 -1.3267
 3232SOL     OW11136   5.329   3.223  10.753  0.1023  0.0940 -0.2442
 3232SOL    HW111137   5.258   3.194  10.695  0.4033 -0.4506 -0.3487
 3232SOL    HW211138   5.285   3.279  10.818  0.0104  2.0887 -1.9361
 3233SOL     OW11139   0.957   2.659   9.507 -0.3112 -0.0219 -0.3156
 3233SOL    HW111140   0.955   2.564   9.494 -0.2719 -0.2393  1.0884
 3233SOL    HW211141   0.876   2.679   9.555 -1.0599  0.8901 -1.8976
 3234SOL     OW11142   1.785   0.529   1.439 -0.2174  0.4241 -0.3392
 3234SOL    HW111143   1.757   0.557   1.352  0.5280  0.4930 -0.5671
 3234SOL    HW211144   1.853   0.463   1.422 -0.8208 -0.3536  0.1938
 3235SOL     OW11145   2.212   5.485   2.393  0.7150  0.1469 -0.0083
 3235SOL    HW111146   2.168   5.407   2.425 -0.0533  0.7245  0.3965
 3235SOL    HW211147   2.261   5.456   2.316 -1.8340 -0.2034 -1.6183
 3236SOL     OW11148   0.492   0.321   4.767 -0.7680  0.0913 -0.3164
 3236SOL    HW111149   0.489   0.291   4.675  2.7886  1.1337 -0.9284
 3236SOL    HW211150   0.473   0.414   4.762  1.7047  0.6452 -0.4081
 3237SOL     OW11151   0.205   6.365   7.912  0.0272  0.1796  0.0872
 3237SOL    HW111152   0.236   6.320   7.834 -2.7018 -0.6598 -0.6390
 3237SOL    HW211153   0.255   6.447   7.915  0.3247  0.1677 -2.4630
 3238SOL     OW11154   1.602   2.248  10.124  0.0412 -0.0971  0.1540
 3238SOL    HW111155   1.683   2.202  10.104 -0.0379  0.4357 -1.5125
 3238SOL    HW211156   1.630   2.321  10.181  0.2643 -1.6418  2.1462
 3239SOL     OW11157   2.422   2.881   2.508  0.5295 -0.2173 -0.1589
 3239SOL    HW111158   2.417   2.793   2.469  1.0928 -0.3106 -0.0242
 3239SOL    HW211159   2.462   2.935   2.440  0.7127 -0.1916 -0.0315
 3240SOL     OW11160   0.619   2.059   4.963 -0.5890  0.0258 -0.1984
 3240SOL    HW111161   0.652   1.983   5.010 -3.4492 -0.4044  1.3962
 3240SOL    HW211162   0.543   2.026   4.915 -0.2669  1.3618 -1.7068
 3241SOL     OW11163   1.029   4.693  11.585 -0.0681  0.0486 -0.4298
 3241SOL    HW111164   0.942   4.670  11.552  0.5642 -0.0492 -2.0890
 3241SOL    HW211165   1.014   4.774  11.634 -1.2860 -0.6350  0.3988
 3242SOL     OW11166   3.767   1.276   4.424 -0.0858  0.2163 -0.4248
 3242SOL    HW111167   3.849   1.282   4.374  0.6233 -1.7751  0.4302
 3242SOL    HW211168   3.740   1.185   4.415 -0.2251 -0.0771  2.3575
 3243SOL     OW11169   0.821   4.429  10.867 -0.2384  0.3482 -0.0012
 3243SOL    HW111170   0.765   4.352  10.877 -0.4773  0.0119 -3.0151
 3243SOL    HW211171   0.769   4.502  10.901  0.0155 -0.6962  2.9653
 3244SOL     OW11172   5.406   7.329   7.954 -0.2292  0.1197 -0.2995
 3244SOL    HW111173   5.365   7.411   7.984 -1.7089 -0.4757 -0.6102
 3244SOL    HW211174   5.443   7.351   7.869  0.9862  0.9288  0.4151
 3245SOL     OW11175   7.345   4.740   9.682 -0.3575  0.6990  0.2014
 3245SOL    HW111176   7.411   4.701   9.739 -1.4897  0.2715  1.2843
 3245SOL    HW211177   7.351   4.834   9.700  0.4682  0.7404 -0.2834
 3246SOL     OW11178   4.710   5.644   5.286  0.3546 -0.2874 -0.1265
 3246SOL    HW111179   4.724   5.739   5.281 -1.7288  0.1503  1.1926
 3246SOL    HW211180   4.792   5.606   5.255  2.1569  1.9411  1.5392
 3247SOL     OW11181   0.113   5.129   1.744  0.3135 -0.3609 -0.0989
 3247SOL    HW111182   0.181   5.131   1.811  1.1447  0.1771 -0.9326
 3247SOL    HW211183   0.158   5.152   1.663 -1.1168  1.6440 -0.4302
 3248SOL     OW11184   1.995   5.804   8.797  0.5836  0.8837  0.7435
 3248SOL    HW111185   1.971   5.880   8.849  0.4440  2.7319 -1.8349
 3248SOL    HW211186   1.913   5.775   8.757  1.1478  1.6229 -1.0387
 3249SOL     OW11187   0.533   0.130   7.117 -0.2850 -0.0247 -0.2481
 3249SOL    HW111188   0.508   0.210   7.072 -0.5590  0.7232  1.1744
 3249SOL    HW211189   0.582   0.160   7.194  0.3562 -1.2571 -0.1427
 3250SOL     OW11190   4.711   5.322  11.832 -0.0565  0.0489  0.7369
 3250SOL    HW111191   4.662   5.402  11.812 -1.6347 -1.0715 -0.1028
 3250SOL    HW211192   4.785   5.324  11.771 -1.6016 -0.4292 -1.2745
 3251SOL     OW11193   3.857   7.050   5.070  0.1933  0.3750  0.4117
 3251SOL    HW111194   3.895   7.125   5.114 -2.7112  1.8851  0.6044
 3251SOL    HW211195   3.792   7.088   5.010  0.3023 -1.8874 -1.2711
 3252SOL     OW11196   3.732   6.124   3.842 -0.0193 -0.5358  0.1389
 3252SOL    HW111197   3.663   6.189   3.833  0.1092 -0.4700 -0.4105
 3252SOL    HW211198   3.737   6.107   3.936 -2.2326 -2.0912  0.0739
 3253SOL     OW11199   4.901   6.878   3.940 -0.1369  0.0635 -0.2329
 3253SOL    HW111200   4.827   6.883   4.000 -1.8335  0.2862 -2.2091
 3253SOL    HW211201   4.872   6.926   3.862  3.0803  2.4102 -0.1931
 3254SOL     OW11202   6.817   1.765   5.969  0.0085 -0.0130 -0.7149
 3254SOL    HW111203   6.723   1.784   5.973 -0.0553 -0.4719  0.3162
 3254SOL    HW211204   6.856   1.847   5.938 -0.4656  1.2003  1.6163
 3255SOL     OW11205   7.708   4.224   5.121 -0.5919 -0.0794  0.3055
 3255SOL    HW111206   7.629   4.264   5.086 -0.7535 -1.5280 -1.1402
 3255SOL    HW211207   7.679   4.176   5.198 -0.6541  1.3068  1.1816
 3256SOL     OW11208   0.687   3.382  12.444  0.3729  0.6238  0.0637
 3256SOL    HW111209   0.774   3.372  12.483  0.3485  0.2564  0.0287
 3256SOL    HW211210   0.629   3.396  12.519  0.3478  0.0621  0.1592
 3257SOL     OW11211   4.723   1.278   9.403  0.4669 -0.1690 -0.2726
 3257SOL    HW111212   4.629   1.266   9.391  0.7199 -0.5679 -2.3284
 3257SOL    HW211213   4.745   1.225   9.480 -0.7226 -1.5203 -0.8189
 3258SOL     OW11214   6.057   6.041  10.846  0.1965 -0.0181 -0.1247
 3258SOL    HW111215   6.051   5.948  10.825 -1.0504 -0.4987  2.1194
 3258SOL    HW211216   6.038   6.085  10.763 -2.9619 -1.7730 -0.4787
 3259SOL     OW11217   1.492   3.907   5.357  0.1988 -0.2838 -0.2870
 3259SOL    HW111218   1.483   3.931   5.264 -0.8006 -2.7489 -0.9062
 3259SOL    HW211219   1.405   3.874   5.381  1.1560 -2.2120  0.7178
 3260SOL     OW11220   7.384   3.845   1.906 -0.3285  0.6120 -0.4118
 3260SOL    HW111221   7.461   3.816   1.956  0.9533  0.1067 -2.5564
 3260SOL    HW211222   7.357   3.768   1.857  0.2386  1.7484 -2.6423
 3261SOL     OW11223   4.302   6.247  10.182 -0.9979 -0.2923 -0.2979
 3261SOL    HW111224   4.224   6.304  10.185  0.2898  1.6165 -1.0611
 3261SOL    HW211225   4.328   6.247  10.090 -0.8856 -2.1090 -0.3017
 3262SOL     OW11226   1.591   6.428  10.643 -0.2784  0.0735  0.2724
 3262SOL    HW111227   1.648   6.445  10.567 -2.1221 -0.1839 -1.2507
 3262SOL    HW211228   1.622   6.345  10.678  1.5238  0.8927  0.7167
 3263SOL     OW11229   1.983   2.336   6.210  0.1741  0.0914  0.3667
 3263SOL    HW111230   2.015   2.413   6.163 -0.1652  0.0219  0.0095
 3263SOL    HW211231   2.050   2.318   6.276  0.1988  0.7612  0.5325
 3264SOL     OW11232   0.166   3.960   3.112  0.4410  0.1634  0.2669
 3264SOL    HW111233   0.261   3.959   3.108  0.5330  2.0337  0.8873
 3264SOL    HW211234   0.141   4.043   3.071 -0.9722 -0.6412 -0.5744
 3265SOL     OW11235   0.067   6.505   4.527  0.1622 -0.4083 -0.0279
 3265SOL    HW111236   0.129   6.577   4.512  1.4030 -1.6117 -0.9874
 3265SOL    HW211237  -0.008   6.546   4.569  1.6031  1.1222  1.1643
 3266SOL     OW11238   1.062   0.728   0.653  0.0130 -0.1173 -0.5813
 3266SOL    HW111239   0.986   0.784   0.635 -0.1253  0.1210  0.6627
 3266SOL    HW211240   1.065   0.721   0.748  0.3002 -1.8685 -0.6828
 3267SOL     OW11241   0.035   0.546  12.319  0.1893 -0.2823 -0.0815
 3267SOL    HW111242   0.048   0.592  12.402  0.9439 -0.3430 -0.1551
 3267SOL    HW211243  -0.059   0.544  12.307  0.1167  0.7772  0.1869
 3268SOL     OW11244   2.396   4.327   0.473 -0.0186  0.4745  0.6631
 3268SOL    HW111245   2.478   4.282   0.451 -0.7247 -0.4271 -0.2790
 3268SOL    HW211246   2.378   4.381   0.396 -1.4466 -1.0922 -0.1737
 3269SOL     OW11247   6.319   0.593   0.549  0.4639 -0.1668 -0.1279
 3269SOL    HW111248   6.410   0.584   0.575  0.8564  1.0027 -0.9923
 3269SOL    HW211249   6.306   0.526   0.481  1.8717  2.0823 -2.8514
 3270SOL     OW11250   4.133   7.959   2.942 -0.1851  0.1749 -0.4344
 3270SOL    HW111251   4.174   8.045   2.937  0.8554 -0.2264  0.8215
 3270SOL    HW211252   4.042   7.975   2.916 -0.4770  2.0044  1.3780
 3271SOL     OW11253   2.968   4.712   0.974  0.1886 -0.3110 -0.5753
 3271SOL    HW111254   2.995   4.627   1.008  0.5404 -0.1760 -0.5134
 3271SOL    HW211255   3.012   4.776   1.031 -0.7130 -0.0827 -0.1088
 3272SOL     OW11256   1.398   2.057   3.949  0.1743  0.8450  0.0445
 3272SOL    HW111257   1.468   1.998   3.976 -0.8486 -0.5077 -0.1157
 3272SOL    HW211258   1.406   2.133   4.006  0.8354  0.0416  1.0591
 3273SOL     OW11259   4.381   7.512  10.340 -0.6430 -0.3756 -0.0997
 3273SOL    HW111260   4.295   7.477  10.315 -0.2964 -0.6823 -0.9023
 3273SOL    HW211261   4.365   7.560  10.421 -1.6508 -0.0795 -0.4589
 3274SOL     OW11262   3.920   7.451   0.509 -0.0437  0.2448 -0.1579
 3274SOL    HW111263   3.891   7.363   0.535 -1.3919  0.7357  0.0735
 3274SOL    HW211264   3.882   7.463   0.422 -0.4125  0.8575  0.0894
 3275SOL     OW11265   4.166   1.415   2.023 -0.4334  0.3527 -0.0225
 3275SOL    HW111266   4.157   1.450   2.111 -0.4618 -1.2714  0.6496
 3275SOL    HW211267   4.086   1.366   2.008 -0.1941  0.1668 -0.7438
 3276SOL     OW11268   0.637   2.293   3.059  0.4261 -0.7490  0.0123
 3276SOL    HW111269   0.561   2.296   3.001  0.1406  0.4434  0.4081
 3276SOL    HW211270   0.700   2.353   3.019  0.4573 -0.3697  0.6114
 3277SOL     OW11271   7.513   4.370   2.810  0.0252  0.6790 -0.5179
 3277SOL    HW111272   7.521   4.440   2.876 -1.8521  0.0988  0.3941
 3277SOL    HW211273   7.563   4.297   2.847 -1.0305  0.3504  0.3402
 3278SOL     OW11274   3.326   0.250   9.897  0.1846 -0.1495  0.1347
 3278SOL    HW111275   3.231   0.242   9.888  0.1604 -0.4254  0.5999
 3278SOL    HW211276   3.361   0.191   9.832  0.0331 -0.2512  0.1449
 3279SOL     OW11277   5.809   7.643   3.295  0.3071 -0.3216 -0.8057
 3279SOL    HW111278   5.822   7.707   3.365 -0.9656  0.1748 -0.9965
 3279SOL    HW211279   5.841   7.560   3.331 -3.2463 -0.8400  1.6822
 3280SOL     OW11280   3.475   0.077   8.355 -0.3056 -0.0046  0.6565
 3280SOL    HW111281   3.539   0.017   8.394 -0.1351  0.5646  1.2873
 3280SOL    HW211282   3.453   0.137   8.426 -0.1891  0.9015 -0.0558
 3281SOL     OW11283   2.861   7.844   7.244  0.7803  0.0776 -0.1096
 3281SOL    HW111284   2.789   7.872   7.301  0.4497  0.3079 -0.6322
 3281SOL    HW211285   2.898   7.926   7.212  1.2377 -0.0440  0.1085
 3282SOL     OW11286   4.689   4.899   6.141 -0.4318 -0.1002  0.5662
 3282SOL    HW111287   4.696   4.887   6.236 -2.3050 -0.7691  0.6611
 3282SOL    HW211288   4.705   4.811   6.105 -0.3065  0.0297  0.3044
 3283SOL     OW11289   5.432   2.056   0.414 -0.2317  0.1468 -0.3190
 3283SOL    HW111290   5.508   2.019   0.458 -1.1936 -0.5921  0.7970
 3283SOL    HW211291   5.424   2.004   0.334  0.3507  0.1279 -0.3666
 3284SOL     OW11292   0.218   3.773   7.395 -0.2321  0.5511  0.5829
 3284SOL    HW111293   0.256   3.859   7.374  1.1456  0.0244  0.7984
 3284SOL    HW211294   0.124   3.789   7.400 -0.2046  1.6795 -1.2581
 3285SOL     OW11295   1.569   5.456  12.357 -0.2397 -0.4370  0.4290
 3285SOL    HW111296   1.561   5.373  12.405 -0.4290 -2.1797 -2.4038
 3285SOL    HW211297   1.586   5.430  12.267  1.1134  2.6733 -0.3428
 3286SOL     OW11298   5.870   0.223   9.750 -0.2764  0.5820 -0.5445
 3286SOL    HW111299   5.929   0.238   9.824 -0.7413  1.6522 -0.3653
 3286SOL    HW211300   5.926   0.185   9.682 -0.1257 -1.7986  0.8014
 3287SOL     OW11301   6.356   5.133   0.583  0.4107  0.2719 -0.3544
 3287SOL    HW111302   6.388   5.206   0.530  1.0957 -0.1743 -0.5564
 3287SOL    HW211303   6.271   5.112   0.545  0.3934  0.6907 -0.5590
 3288SOL     OW11304   7.576   7.217   2.843  0.3036 -0.0966 -0.3280
 3288SOL    HW111305   7.630   7.151   2.799  0.5901  0.0595 -0.2112
 3288SOL    HW211306   7.500   7.168   2.875 -0.5405 -0.0029 -2.0561
 3289SOL     OW11307   3.260   1.947   6.142 -0.3400  0.4056 -0.5420
 3289SOL    HW111308   3.311   1.866   6.130  1.9064  1.6806 -0.1549
 3289SOL    HW211309   3.278   1.998   6.063 -2.8374  0.0409 -1.4167
 3290SOL     OW11310   3.795   7.098   8.013  0.3313 -0.3142  0.3808
 3290SOL    HW111311   3.794   7.088   7.918  0.8103 -0.6315  0.4019
 3290SOL    HW211312   3.826   7.014   8.046  2.2444  0.4348  0.6899
 3291SOL     OW11313   3.911   6.583  12.054 -0.2188  0.4607 -0.2319
 3291SOL    HW111314   3.825   6.545  12.038 -0.9500  1.6185  0.7128
 3291SOL    HW211315   3.973   6.518  12.021 -1.4268 -0.8290 -0.0633
 3292SOL     OW11316   5.948   4.562   7.733  0.1425  0.1167 -0.2063
 3292SOL    HW111317   5.943   4.476   7.775 -1.1332  1.0225  1.6254
 3292SOL    HW211318   6.002   4.547   7.655 -0.8588 -2.5587 -0.5287
 3293SOL     OW11319   7.180   7.304  11.983  0.2423  0.0470 -0.0953
 3293SOL    HW111320   7.221   7.284  11.899  0.5099 -1.8331  0.4436
 3293SOL    HW211321   7.099   7.252  11.983  0.0787  0.2837  0.6624
 3294SOL     OW11322   3.565   0.957   7.005  0.4184  0.1435  0.1052
 3294SOL    HW111323   3.569   0.985   7.096 -0.7384 -1.4077  0.6683
 3294SOL    HW211324   3.650   0.915   6.989 -0.1620 -1.5608  1.1949
 3295SOL     OW11325   0.052   0.212   8.592 -0.0319 -0.0022  0.3926
 3295SOL    HW111326   0.091   0.147   8.534  0.5975  0.4417  0.3070
 3295SOL    HW211327   0.067   0.296   8.547 -3.1123  0.0553 -0.8351
 3296SOL     OW11328   3.056   5.517   1.769 -0.0051  0.2982 -0.6270
 3296SOL    HW111329   2.995   5.581   1.806 -0.0005  0.1549 -0.3707
 3296SOL    HW211330   3.047   5.439   1.824 -0.5868 -0.2053 -1.4169
 3297SOL     OW11331   5.712   5.179   1.683  0.1950  0.1064 -0.1100
 3297SOL    HW111332   5.667   5.214   1.760 -0.3030 -0.9781  0.1135
 3297SOL    HW211333   5.737   5.090   1.708 -0.0531 -0.2964 -1.2243
 3298SOL     OW11334   3.694   0.372   6.338 -0.3280  0.3626 -0.0717
 3298SOL    HW111335   3.626   0.396   6.402 -0.3195 -0.2602  0.1743
 3298SOL    HW211336   3.675   0.281   6.317  0.9622 -0.0945  0.6648
 3299SOL     OW11337   3.138   2.338   8.001 -0.2514  0.1073 -0.5426
 3299SOL    HW111338   3.101   2.301   8.081  0.9487 -1.9928 -0.8984
 3299SOL    HW211339   3.201   2.403   8.031 -0.3226 -0.1505  0.1792
 3300SOL     OW11340   6.946   6.970   0.485 -0.2792  0.2389 -0.2848
 3300SOL    HW111341   7.010   7.033   0.518  0.5062 -1.0502  0.7778
 3300SOL    HW211342   6.870   7.023   0.462  0.2327  1.5473  0.8550
 3301SOL     OW11343   2.459   1.922   3.216 -0.3430  0.3765 -0.1902
 3301SOL    HW111344   2.544   1.954   3.246  0.3370 -1.0990 -0.4891
 3301SOL    HW211345   2.441   1.845   3.270 -1.2003  0.3101 -0.5522
 3302SOL     OW11346   2.316   6.558   3.289 -0.1113 -0.1058 -0.3194
 3302SOL    HW111347   2.265   6.623   3.241 -0.2292  0.1439  0.1315
 3302SOL    HW211348   2.326   6.596   3.377  2.4983  0.7519 -0.8928
 3303SOL     OW11349   1.552   5.673   8.621 -0.2926 -0.1645  0.2600
 3303SOL    HW111350   1.467   5.634   8.600  0.4160 -1.3129 -0.5767
 3303SOL    HW211351   1.536   5.767   8.616 -1.1173 -0.3578 -1.6939
 3304SOL     OW11352   5.024   3.254   2.335 -0.1547  0.3927  0.3615
 3304SOL    HW111353   5.011   3.325   2.272  0.2468  0.1311 -0.0160
 3304SOL    HW211354   4.945   3.257   2.390 -0.6073  0.4878 -0.2792
 3305SOL     OW11355   6.788   1.923   5.122 -0.4092 -0.7198  0.1628
 3305SOL    HW111356   6.781   2.017   5.137 -1.1596 -0.9698  1.4731
 3305SOL    HW211357   6.829   1.888   5.202  0.2875 -1.4651 -0.4894
 3306SOL     OW11358   5.372   0.467   9.409  0.3341 -0.5471  0.2967
 3306SOL    HW111359   5.428   0.499   9.338  0.4245  0.2477  0.7140
 3306SOL    HW211360   5.416   0.494   9.489 -0.3556 -0.3905  0.6391
 3307SOL     OW11361   3.279   5.645   9.293  0.0031 -0.1705  0.7807
 3307SOL    HW111362   3.237   5.675   9.212 -1.0264  0.6055  1.5822
 3307SOL    HW211363   3.224   5.573   9.324 -0.6860  0.7454  1.7500
 3308SOL     OW11364   0.537   5.548  10.470  0.0308 -0.0361 -0.1723
 3308SOL    HW111365   0.587   5.467  10.477  1.5137  0.8239 -0.4793
 3308SOL    HW211366   0.602   5.617  10.456 -1.1039  1.3601  0.9779
 3309SOL     OW11367   7.466   3.909  11.808  0.0665  0.4973  0.2555
 3309SOL    HW111368   7.469   3.940  11.718 -0.8261 -1.1802 -0.4077
 3309SOL    HW211369   7.383   3.943  11.843  0.6793  1.6210  0.6539
 3310SOL     OW11370   3.611   0.920  11.501  0.6436  0.0156  0.4484
 3310SOL    HW111371   3.625   1.001  11.549  0.1021  0.0849  0.4922
 3310SOL    HW211372   3.556   0.945  11.427 -0.9159 -0.5922  1.3570
 3311SOL     OW11373   5.720   3.288   2.121  0.3788  0.2401  0.2355
 3311SOL    HW111374   5.689   3.363   2.069  0.0563  0.2616  0.4582
 3311SOL    HW211375   5.696   3.309   2.211 -2.1059 -1.2764  0.0356
 3312SOL     OW11376   6.623   1.125   3.988  0.1988 -0.0642 -0.0917
 3312SOL    HW111377   6.571   1.190   3.941  0.6994 -0.7511 -1.6978
 3312SOL    HW211378   6.681   1.176   4.044 -1.2358  0.7508  0.7018
 3313SOL     OW11379   0.512   4.950   9.784  0.2092 -0.3893  0.3201
 3313SOL    HW111380   0.536   5.004   9.709  1.5162 -1.2005  0.1114
 3313SOL    HW211381   0.422   4.922   9.766  0.2755 -0.0373 -0.6173
 3314SOL     OW11382   4.107   2.556  12.339  0.2170  0.0486  0.2065
 3314SOL    HW111383   4.040   2.600  12.286  1.0177 -0.4972 -1.3245
 3314SOL    HW211384   4.080   2.572  12.430 -2.1652 -0.4196 -0.3453
 3315SOL     OW11385   5.451   1.390   6.390  0.3751  0.5454 -0.6420
 3315SOL    HW111386   5.417   1.405   6.301  0.3776  1.7163 -0.4634
 3315SOL    HW211387   5.416   1.463   6.441 -2.1905 -1.7047  1.1025
 3316SOL     OW11388   4.666   7.794  10.584 -0.2195  0.4520  0.2949
 3316SOL    HW111389   4.591   7.853  10.574  0.1662  0.9211  0.0781
 3316SOL    HW211390   4.689   7.800  10.676  0.3310  1.2974  0.1161
 3317SOL     OW11391   3.271   5.422   9.847  0.8729 -0.0713 -0.5524
 3317SOL    HW111392   3.307   5.360   9.911  1.0369  1.8313  1.3204
 3317SOL    HW211393   3.211   5.477   9.898  0.3788  1.0236 -2.2221
 3318SOL     OW11394   6.169   2.452  11.775 -0.3974  0.0364  1.0369
 3318SOL    HW111395   6.181   2.474  11.682 -1.1884  0.6641  1.0686
 3318SOL    HW211396   6.255   2.466  11.814  0.4396 -2.0577  0.0685
 3319SOL     OW11397   1.409   7.143   0.089 -0.1777  0.0766 -0.1729
 3319SOL    HW111398   1.472   7.211   0.064  0.2490 -0.1646  0.2394
 3319SOL    HW211399   1.430   7.122   0.180 -1.2094  0.3849  0.1564
 3320SOL     OW11400   2.984   1.279   3.955 -0.3318 -0.0207  0.1382
 3320SOL    HW111401   3.046   1.326   3.899 -1.7334  0.4042 -1.1300
 3320SOL    HW211402   2.935   1.347   4.000 -0.4637 -0.3397  0.4853
 3321SOL     OW11403   5.056   2.956   0.405  0.1034  0.3985  0.9012
 3321SOL    HW111404   5.076   2.996   0.490 -2.1724  1.5988  0.9436
 3321SOL    HW211405   4.992   3.015   0.365  1.5138  0.1912 -1.9463
 3322SOL     OW11406   3.079   7.634  11.904  0.0696 -0.4248 -0.0410
 3322SOL    HW111407   2.997   7.683  11.899 -0.1704 -0.9071 -0.9539
 3322SOL    HW211408   3.147   7.698  11.882 -0.1771 -0.3399 -0.5542
 3323SOL     OW11409   4.662   1.116  10.179 -0.1464  0.0606  0.2387
 3323SOL    HW111410   4.747   1.130  10.220  0.3094 -0.2161 -0.5862
 3323SOL    HW211411   4.667   1.165  10.097 -0.4398 -0.7190 -0.2511
 3324SOL     OW11412   5.569   2.852   4.544  0.2543 -0.1629  0.3815
 3324SOL    HW111413   5.603   2.824   4.629 -1.2776  0.1857  1.1316
 3324SOL    HW211414   5.503   2.918   4.565 -0.1135 -0.0266 -1.0950
 3325SOL     OW11415   0.344   2.270   8.609 -0.5686  0.2577  0.3226
 3325SOL    HW111416   0.402   2.202   8.574  2.0445  1.3475  2.1774
 3325SOL    HW211417   0.362   2.347   8.555 -0.0668  0.6645  1.0480
 3326SOL     OW11418   1.751   0.533   2.487 -0.1051 -0.2639 -0.3790
 3326SOL    HW111419   1.666   0.492   2.476 -0.8107  0.9234  0.4531
 3326SOL    HW211420   1.807   0.491   2.421 -0.8322 -2.3534  0.2731
 3327SOL     OW11421   5.183   5.190   5.349 -0.1401  0.3011 -0.7947
 3327SOL    HW111422   5.162   5.280   5.324 -0.0762  0.3505 -0.6724
 3327SOL    HW211423   5.276   5.192   5.371 -0.0386  0.1123 -1.1990
 3328SOL     OW11424   0.400   2.400  11.012  0.4296  0.0725  0.0248
 3328SOL    HW111425   0.394   2.428  11.103 -0.9337 -0.5808  0.1620
 3328SOL    HW211426   0.494   2.387  10.997  0.7655  1.2112  1.0005
 3329SOL     OW11427   5.187   4.968   2.161 -0.0347  0.3879  0.0505
 3329SOL    HW111428   5.251   4.897   2.151 -0.6079 -0.2347  0.6712
 3329SOL    HW211429   5.103   4.928   2.138 -0.5278  0.5280  1.5075
 3330SOL     OW11430   6.781   2.627  10.015  0.0497 -0.2536  0.0890
 3330SOL    HW111431   6.764   2.709  10.062  0.2162 -1.0242  1.5635
 3330SOL    HW211432   6.712   2.622   9.949 -1.3309  0.0093  1.4529
 3331SOL     OW11433   7.166   1.395   5.600 -0.4829 -0.3903 -0.2131
 3331SOL    HW111434   7.137   1.486   5.600  1.9889  0.4759  0.7898
 3331SOL    HW211435   7.148   1.364   5.511 -1.7706  0.9044 -0.4411
 3332SOL     OW11436   7.663   7.481  10.025  0.1270 -0.0653 -0.3412
 3332SOL    HW111437   7.707   7.542   9.965  0.8217 -0.9132 -0.7216
 3332SOL    HW211438   7.728   7.413  10.042 -0.3993 -0.3502  0.6161
 3333SOL     OW11439   2.283   7.068  10.898 -0.1669  0.9336 -0.3128
 3333SOL    HW111440   2.315   6.980  10.919  0.6710  1.1998 -0.4302
 3333SOL    HW211441   2.201   7.076  10.947  0.0710  0.3260  0.2044
 3334SOL     OW11442   4.221   7.594   3.961 -0.3994 -0.1071  0.1583
 3334SOL    HW111443   4.161   7.622   4.029  0.4902 -1.1123  1.4157
 3334SOL    HW211444   4.289   7.544   4.008  0.4506 -0.5015 -1.4106
 3335SOL     OW11445   0.437   2.842  10.693  0.1915  0.4638  0.2037
 3335SOL    HW111446   0.424   2.830  10.599  0.4994 -0.5165  0.2654
 3335SOL    HW211447   0.444   2.936  10.705  1.1865  0.5667 -0.9156
 3336SOL     OW11448   0.456   3.490  10.061 -0.0386 -1.3190  0.3268
 3336SOL    HW111449   0.436   3.566  10.006 -0.2903 -1.9166 -0.4190
 3336SOL    HW211450   0.386   3.488  10.126  1.9092  1.2490  2.7250
 3337SOL     OW11451   5.762   5.337   2.724 -0.2285  0.2251 -0.0409
 3337SOL    HW111452   5.729   5.292   2.802  0.2511 -0.9428 -0.4949
 3337SOL    HW211453   5.717   5.295   2.651 -0.4619  1.1221 -0.4289
 3338SOL     OW11454   7.601   0.179  10.805  0.4624  0.7780  0.0550
 3338SOL    HW111455   7.686   0.136  10.798 -0.4441 -0.9849 -0.8621
 3338SOL    HW211456   7.537   0.108  10.793 -1.1392  2.0508  0.7043
 3339SOL     OW11457   7.934   3.078  12.131 -0.5939 -0.5120 -0.1272
 3339SOL    HW111458   7.896   3.017  12.194 -0.1978 -1.7134 -1.0157
 3339SOL    HW211459   7.975   3.145  12.185 -1.9191 -0.4510  0.8673
 3340SOL     OW11460   2.443   5.433   1.403 -0.1505  0.5325 -0.1644
 3340SOL    HW111461   2.467   5.440   1.311 -0.7374  0.9261 -0.2946
 3340SOL    HW211462   2.419   5.341   1.415 -0.5609  0.5919 -0.5310
 3341SOL     OW11463   5.072   6.756   8.947 -0.2339 -0.2806 -0.1152
 3341SOL    HW111464   5.072   6.668   8.910  1.0192 -0.7487  0.9241
 3341SOL    HW211465   5.070   6.814   8.871  2.1972 -1.2056 -0.9618
 3342SOL     OW11466   3.172   0.904   6.095  0.5689  0.7051 -0.2283
 3342SOL    HW111467   3.086   0.927   6.131  0.4827  1.2239 -0.7474
 3342SOL    HW211468   3.198   0.825   6.142  0.4112  1.3092  0.9024
 3343SOL     OW11469   0.317   0.874   7.792 -0.2293  0.4353 -0.0456
 3343SOL    HW111470   0.410   0.893   7.774 -0.0953 -1.0217 -1.1194
 3343SOL    HW211471   0.310   0.877   7.887  1.0491  0.1128  0.0835
 3344SOL     OW11472   6.791   1.930   2.125  0.5307 -0.7751  0.4464
 3344SOL    HW111473   6.699   1.935   2.097 -0.1345 -0.9537  2.3622
 3344SOL    HW211474   6.812   2.018   2.154  0.8143 -0.8212  0.3735
 3345SOL     OW11475   6.869   1.556   5.469 -0.1262  0.2312 -0.0715
 3345SOL    HW111476   6.878   1.646   5.436 -1.0629  0.8344  1.2310
 3345SOL    HW211477   6.900   1.561   5.560 -0.7155 -0.6470  0.1879
 3346SOL     OW11478   4.717   4.887   4.592  0.4442 -0.0068 -0.6155
 3346SOL    HW111479   4.622   4.886   4.581  0.2866  2.6536  0.0250
 3346SOL    HW211480   4.731   4.904   4.685  1.5911 -0.5543 -0.6586
 3347SOL     OW11481   3.485   1.576   6.192 -0.5306  0.3044 -0.0114
 3347SOL    HW111482   3.438   1.507   6.146  3.1455 -2.6427  0.1500
 3347SOL    HW211483   3.529   1.626   6.124  1.3665 -1.2796 -0.0498
 3348SOL     OW11484   6.473   3.928  11.088 -0.2344  0.1998  0.4570
 3348SOL    HW111485   6.379   3.923  11.075  0.0076  0.3782 -1.7488
 3348SOL    HW211486   6.485   3.926  11.183 -2.3495 -1.3928  0.7492
 3349SOL     OW11487   5.998   7.343   9.827 -0.0133  0.1442 -0.2146
 3349SOL    HW111488   5.907   7.367   9.806 -1.1986 -3.1394  0.6034
 3349SOL    HW211489   6.002   7.345   9.922  0.4926 -0.6680 -0.2162
 3350SOL     OW11490   0.085   7.063   1.140 -0.4635 -0.5887 -0.2034
 3350SOL    HW111491   0.054   7.006   1.070 -0.1715  0.1145 -0.9189
 3350SOL    HW211492   0.180   7.052   1.139 -0.3022  0.7170 -1.0747
 3351SOL     OW11493   3.116   2.571   7.291  0.2196 -0.4641 -1.1523
 3351SOL    HW111494   3.149   2.502   7.349 -0.4846 -0.0268 -0.1907
 3351SOL    HW211495   3.180   2.642   7.300 -0.2439 -0.1262 -0.3236
 3352SOL     OW11496   5.355   0.728   0.611 -0.1660 -0.0607  0.6985
 3352SOL    HW111497   5.443   0.746   0.578  0.9133 -1.6012  2.5195
 3352SOL    HW211498   5.324   0.813   0.643  0.0156  0.7975 -1.2577
 3353SOL     OW11499   2.444   6.770   1.795  0.1135 -0.5048 -0.4083
 3353SOL    HW111500   2.406   6.710   1.859  1.2389 -1.2963 -0.4552
 3353SOL    HW211501   2.401   6.748   1.712  0.1385 -0.8808 -0.3195
 3354SOL     OW11502   7.144   6.583  11.260  0.5005 -0.1653  0.6226
 3354SOL    HW111503   7.190   6.558  11.340 -0.6564  1.1377  1.7545
 3354SOL    HW211504   7.182   6.667  11.235 -1.0313  0.8381  1.4711
 3355SOL     OW11505   7.374   2.355   8.099  0.2768 -0.1422  0.1454
 3355SOL    HW111506   7.318   2.428   8.127  1.2679  0.1309  1.5430
 3355SOL    HW211507   7.322   2.277   8.116 -1.4241  0.1700 -2.7872
 3356SOL     OW11508   1.184   4.710  10.251  0.0889 -0.2819  0.7394
 3356SOL    HW111509   1.090   4.715  10.267 -0.0188 -1.7149  0.6481
 3356SOL    HW211510   1.218   4.792  10.287 -1.2251  0.4201  0.4545
 3357SOL     OW11511   6.503   4.498   6.166  0.7446  0.0953 -0.0928
 3357SOL    HW111512   6.490   4.565   6.099 -0.7388  0.2613  0.3166
 3357SOL    HW211513   6.415   4.479   6.198  1.4312  0.2361  2.0271
 3358SOL     OW11514   1.636   5.137   6.791 -0.3996 -0.0574  0.1032
 3358SOL    HW111515   1.721   5.177   6.775 -1.1985  1.9070  0.5182
 3358SOL    HW211516   1.574   5.193   6.746 -1.6862 -0.1369  1.6845
 3359SOL     OW11517   6.866   4.790   4.659 -0.7812  0.4751 -0.2480
 3359SOL    HW111518   6.841   4.852   4.727 -2.6071 -1.4946  1.0078
 3359SOL    HW211519   6.870   4.706   4.703 -1.9268 -0.8691 -2.4988
 3360SOL     OW11520   5.916   6.662   4.897 -0.0565  0.1094 -0.2103
 3360SOL    HW111521   5.856   6.717   4.947 -1.3471 -1.0210 -0.4373
 3360SOL    HW211522   5.985   6.638   4.958 -2.0204 -1.9147  1.3961
 3361SOL     OW11523   0.357   6.974   1.115  0.0572 -0.0110  0.2135
 3361SOL    HW111524   0.333   6.919   1.190 -2.9336  1.3610  0.3971
 3361SOL    HW211525   0.432   7.024   1.146 -0.5076 -0.1782  1.9732
 3362SOL     OW11526   4.099   5.729   5.205  0.3845  0.4169 -0.0229
 3362SOL    HW111527   4.041   5.800   5.233  0.4232  0.9265 -1.1666
 3362SOL    HW211528   4.057   5.694   5.126  1.4728  0.6077 -0.7047
 3363SOL     OW11529   1.187   0.081   1.719 -0.3771  0.2791  0.6538
 3363SOL    HW111530   1.102   0.037   1.720 -0.7012  0.7255 -1.6320
 3363SOL    HW211531   1.250   0.013   1.742 -1.1929 -0.4261  0.8529
 3364SOL     OW11532   0.302   7.399  12.452 -0.0823 -0.5256  0.2765
 3364SOL    HW111533   0.334   7.317  12.414  0.0793  0.0319 -0.8562
 3364SOL    HW211534   0.358   7.414  12.528  1.6312 -0.1688 -0.9899
 3365SOL     OW11535   1.673   1.718   8.824 -0.2165  0.5326 -0.4578
 3365SOL    HW111536   1.731   1.766   8.765 -0.4046 -0.4720 -1.4892
 3365SOL    HW211537   1.662   1.776   8.899 -1.3252  2.5997 -2.1345
 3366SOL     OW11538   7.152   2.452   5.232  0.1615  0.0512  0.6599
 3366SOL    HW111539   7.114   2.409   5.155  1.7427  0.5176 -0.4145
 3366SOL    HW211540   7.082   2.449   5.297 -2.2468  2.0138 -1.5969
 3367SOL     OW11541   5.483   0.988  11.650  0.0086  0.2108  0.6531
 3367SOL    HW111542   5.459   0.991  11.557 -4.2127  1.2994  1.5458
 3367SOL    HW211543   5.518   1.075  11.669 -1.2028  0.7564  0.4805
 3368SOL     OW11544   0.061   4.650  10.702  0.1180  0.2921  0.2225
 3368SOL    HW111545   0.153   4.628  10.712 -0.3506 -2.2495 -0.4307
 3368SOL    HW211546   0.015   4.592  10.762 -1.1358  0.6821 -0.3101
 3369SOL     OW11547   5.683   5.919   6.715  0.3676  0.0424  0.5161
 3369SOL    HW111548   5.638   5.988   6.667 -0.0941 -0.1151  0.7193
 3369SOL    HW211549   5.776   5.941   6.707  0.3159 -0.0627 -0.5808
 3370SOL     OW11550   5.306   5.026   5.143  0.7374 -0.3330  0.2350
 3370SOL    HW111551   5.259   5.093   5.193 -0.5359  0.7566 -2.2412
 3370SOL    HW211552   5.292   4.945   5.193 -1.1315  0.5273  1.2442
 3371SOL     OW11553   3.278   1.909  11.167  0.1861 -0.1275 -0.1190
 3371SOL    HW111554   3.277   2.004  11.170  2.5662 -0.0682  1.9678
 3371SOL    HW211555   3.332   1.887  11.091  2.2300  0.3132  1.1499
 3372SOL     OW11556   3.358   1.341  10.851 -0.6100 -0.3977  0.4979
 3372SOL    HW111557   3.288   1.280  10.828 -1.8355  1.0271  0.2816
 3372SOL    HW211558   3.354   1.346  10.947 -0.1308 -1.0632  0.5587
 3373SOL     OW11559   7.466   5.780   7.675 -0.5419 -0.8092  0.5990
 3373SOL    HW111560   7.434   5.753   7.761  1.5567  0.9961  2.0594
 3373SOL    HW211561   7.499   5.700   7.634 -1.2004 -1.6283  1.6324
 3374SOL     OW11562   5.052   0.773   5.920  0.2255  0.0003  0.1464
 3374SOL    HW111563   5.055   0.739   5.831  1.6326 -2.7494  1.1091
 3374SOL    HW211564   5.110   0.849   5.919  1.3616 -0.8325 -1.0251
 3375SOL     OW11565   2.475   1.859   7.737 -0.1738  0.0127  0.0241
 3375SOL    HW111566   2.381   1.873   7.742  0.0295  1.2551  1.0639
 3375SOL    HW211567   2.485   1.778   7.687 -1.7793 -0.1244 -0.1273
 3376SOL     OW11568   5.771   0.103   8.609 -0.2000 -0.5242  0.3418
 3376SOL    HW111569   5.682   0.083   8.637  0.0112 -2.0539 -0.0022
 3376SOL    HW211570   5.783   0.195   8.631 -1.5270 -0.5503  1.2691
 3377SOL     OW11571   5.477   2.093   5.377 -0.1662 -0.2001 -0.1951
 3377SOL    HW111572   5.436   2.159   5.321 -0.1703  0.0594  0.1074
 3377SOL    HW211573   5.423   2.092   5.456  0.3702  0.0953  0.1812
 3378SOL     OW11574   4.740   1.293   3.458 -0.0970  0.1596  0.0325
 3378SOL    HW111575   4.716   1.386   3.468 -1.9209 -0.1860 -0.7806
 3378SOL    HW211576   4.778   1.269   3.542 -0.0188  1.5299  0.4127
 3379SOL     OW11577   7.016   5.704  10.725 -0.2833 -0.6879  0.0428
 3379SOL    HW111578   7.000   5.618  10.764 -1.0602 -1.3055 -1.5382
 3379SOL    HW211579   7.110   5.704  10.706 -0.2159 -1.0508  0.3604
 3380SOL     OW11580   6.888   4.515   6.872  0.0023  0.5201  0.0624
 3380SOL    HW111581   6.826   4.511   6.945 -0.5271 -1.4222 -0.4400
 3380SOL    HW211582   6.956   4.452   6.894 -0.3195 -0.3273 -1.2336
 3381SOL     OW11583   0.360   2.393   6.056  0.4328  0.1064  0.2081
 3381SOL    HW111584   0.396   2.310   6.088  1.0838  0.4482  0.3895
 3381SOL    HW211585   0.425   2.425   5.994 -0.8444 -0.5748 -1.5464
 3382SOL     OW11586   4.366   7.603   8.288  0.3251  0.0172  1.1716
 3382SOL    HW111587   4.422   7.654   8.229 -0.7511  1.0632  1.0009
 3382SOL    HW211588   4.399   7.622   8.376 -0.9124  2.2211  1.2335
 3383SOL     OW11589   2.011   6.292   0.250  0.1226  0.2632  0.0460
 3383SOL    HW111590   2.050   6.378   0.270  0.7784 -0.2500  1.0538
 3383SOL    HW211591   1.921   6.299   0.282  0.4341  0.2973  0.9520
 3384SOL     OW11592   7.331   4.446   3.594  0.3290  0.3460  0.0949
 3384SOL    HW111593   7.381   4.364   3.595  0.6051  0.5095 -0.0113
 3384SOL    HW211594   7.388   4.509   3.639  1.4864  1.2395 -2.4158
 3385SOL     OW11595   3.320   6.119   4.134  0.1326  0.6703 -0.2255
 3385SOL    HW111596   3.325   6.081   4.046  0.8182  2.0233 -0.8008
 3385SOL    HW211597   3.289   6.208   4.120 -1.6882  0.2960  1.1143
 3386SOL     OW11598   0.656   5.577   0.230  0.2765 -0.2980  0.4492
 3386SOL    HW111599   0.654   5.672   0.218 -0.6443 -0.2654  0.8069
 3386SOL    HW211600   0.713   5.565   0.306  0.2529 -0.0249  0.5129
 3387SOL     OW11601   1.462   3.669   2.955 -0.5733 -0.3653  0.3129
 3387SOL    HW111602   1.550   3.692   2.984 -0.1477 -1.2726 -0.2199
 3387SOL    HW211603   1.406   3.737   2.993  0.6863  2.0442 -1.8275
 3388SOL     OW11604   4.333   6.288   8.942 -0.4527 -0.3419 -0.1370
 3388SOL    HW111605   4.286   6.231   9.002 -0.4711  0.2171  0.3946
 3388SOL    HW211606   4.411   6.238   8.917 -0.1030 -0.3371  0.8772
 3389SOL     OW11607   2.662   5.805  10.020 -0.3848  0.0921  0.4563
 3389SOL    HW111608   2.614   5.882   9.989 -0.0875  0.9597  2.0055
 3389SOL    HW211609   2.740   5.842  10.062 -0.4552 -1.0191  1.6170
 3390SOL     OW11610   3.420   5.990   6.519  0.2332 -0.3671 -0.3898
 3390SOL    HW111611   3.493   6.030   6.471 -0.2614 -0.2006 -1.0201
 3390SOL    HW211612   3.450   5.987   6.610  0.4181  1.1598 -0.3729
 3391SOL     OW11613   6.569   4.548   8.266  0.8770 -0.3407  0.1262
 3391SOL    HW111614   6.495   4.608   8.262  0.6142 -0.6815 -0.2237
 3391SOL    HW211615   6.574   4.511   8.178  1.2316 -0.5934  0.2519
 3392SOL     OW11616   4.416   1.274   9.418  0.9700 -0.0801  0.3474
 3392SOL    HW111617   4.348   1.207   9.410  2.1569 -1.4876  1.5872
 3392SOL    HW211618   4.368   1.356   9.427 -0.5262 -0.8036 -0.6872
 3393SOL     OW11619   5.194   2.173  12.179 -0.4785  0.4929 -0.3546
 3393SOL    HW111620   5.186   2.212  12.092  1.0359 -0.1259 -0.8034
 3393SOL    HW211621   5.201   2.079  12.163 -1.7553  0.2146  0.5619
 3394SOL     OW11622   7.944   5.490  12.153  0.2400 -0.1844 -0.7335
 3394SOL    HW111623   7.964   5.404  12.116  0.9778 -0.7453  0.8503
 3394SOL    HW211624   7.983   5.552  12.093 -0.0585 -0.9692 -1.7632
 3395SOL     OW11625   7.464   3.608   8.790 -0.0816  0.5312 -0.4212
 3395SOL    HW111626   7.548   3.654   8.789  0.0421  0.3591  0.6968
 3395SOL    HW211627   7.416   3.643   8.714  0.4647  1.6430 -0.2713
 3396SOL     OW11628   0.009   0.458   6.388  0.5813  0.1617  0.1640
 3396SOL    HW111629  -0.073   0.408   6.383 -0.0810  1.3151 -2.1368
 3396SOL    HW211630   0.055   0.421   6.463 -1.5593 -1.2619  0.8813
 3397SOL     OW11631   7.019   2.262   9.380 -0.7776 -0.5380  0.6648
 3397SOL    HW111632   6.953   2.230   9.319 -2.2564  0.5698  1.5904
 3397SOL    HW211633   6.994   2.225   9.465 -1.1557  1.0928  1.3108
 3398SOL     OW11634   7.358   5.885  12.386 -0.5516 -0.4728  0.1888
 3398SOL    HW111635   7.376   5.949  12.455  0.3645  2.1141 -2.2894
 3398SOL    HW211636   7.262   5.881  12.382 -0.6148 -0.1143  1.0837
 3399SOL     OW11637   3.846   0.354  11.104  0.0703  0.4279 -0.9156
 3399SOL    HW111638   3.940   0.368  11.091  0.2626 -0.9110 -1.0698
 3399SOL    HW211639   3.824   0.279  11.050 -0.9337  0.2355 -0.2785
 3400SOL     OW11640   3.613   0.310   2.204  0.8737  0.1249 -0.0766
 3400SOL    HW111641   3.698   0.269   2.223  0.6871 -0.3031 -0.1458
 3400SOL    HW211642   3.549   0.245   2.234  0.5671 -0.0904 -1.1458
 3401SOL     OW11643   6.275   2.498   1.356 -0.4108 -0.4430 -0.3003
 3401SOL    HW111644   6.301   2.575   1.407 -1.2906 -1.9299  2.6649
 3401SOL    HW211645   6.355   2.470   1.312 -0.0983  2.1464 -1.5768
 3402SOL     OW11646   5.658   3.940   9.245 -0.7265 -0.3374  0.9184
 3402SOL    HW111647   5.572   3.968   9.213 -0.4736  0.3136  0.7899
 3402SOL    HW211648   5.688   4.013   9.299 -0.9026 -1.1888  2.1971
 3403SOL     OW11649   6.430   2.881   3.842  0.8463  0.1202  1.1284
 3403SOL    HW111650   6.441   2.940   3.917 -1.3453  2.2002 -0.0466
 3403SOL    HW211651   6.493   2.913   3.777  1.7450 -0.7812  1.5312
 3404SOL     OW11652   4.058   4.242   6.509 -0.5563 -0.2037 -1.2915
 3404SOL    HW111653   4.098   4.329   6.509 -0.2804 -0.2969 -2.7782
 3404SOL    HW211654   4.107   4.193   6.442  0.8445 -2.2589  1.0661
 3405SOL     OW11655   2.293   1.069   3.519  0.1524  0.0991  0.7116
 3405SOL    HW111656   2.386   1.083   3.540  0.3342  0.5779 -0.3505
 3405SOL    HW211657   2.272   1.139   3.456 -0.6692 -0.5698  0.2275
 3406SOL     OW11658   4.869   1.958   5.391 -0.3555  0.2752 -0.4693
 3406SOL    HW111659   4.876   1.933   5.299 -2.0674 -0.4147 -0.4471
 3406SOL    HW211660   4.853   2.053   5.389  0.5711  0.4323 -0.8197
 3407SOL     OW11661   5.879   3.992   1.704 -0.1473 -0.1197  0.2860
 3407SOL    HW111662   5.963   4.019   1.743 -0.0095  0.0730 -0.1411
 3407SOL    HW211663   5.872   4.044   1.624 -1.1567  0.6174  0.8357
 3408SOL     OW11664   5.966   7.126   5.617  0.6555  0.1064  0.2129
 3408SOL    HW111665   6.045   7.084   5.585  1.3478  1.2891  0.3110
 3408SOL    HW211666   5.997   7.203   5.664 -0.4451 -0.3694  1.8343
 3409SOL     OW11667   2.886   5.739  12.259 -0.2420  0.1142 -0.1436
 3409SOL    HW111668   2.847   5.825  12.248  0.4813  0.6578  1.3578
 3409SOL    HW211669   2.975   5.756  12.288 -0.3933 -1.1245  1.1482
 3410SOL     OW11670   6.061   5.065  10.058 -0.0112 -0.0814  0.0084
 3410SOL    HW111671   5.981   5.023  10.025 -0.0198 -0.0541 -0.0052
 3410SOL    HW211672   6.030   5.129  10.122 -0.3064  2.1573 -2.1648
 3411SOL     OW11673   2.181   7.776   6.493 -0.2224  0.0091 -0.2075
 3411SOL    HW111674   2.114   7.742   6.433 -2.8148  0.4716  2.1941
 3411SOL    HW211675   2.204   7.702   6.549  1.7487 -0.2742 -1.3130
 3412SOL     OW11676   0.167   5.897   7.217  0.4446 -0.6116  0.0495
 3412SOL    HW111677   0.217   5.883   7.298 -0.2276 -1.1493  0.3850
 3412SOL    HW211678   0.231   5.884   7.147  0.4926 -2.8175  0.4254
 3413SOL     OW11679   2.936   7.680   5.314  0.2735  0.4949  0.1078
 3413SOL    HW111680   2.843   7.668   5.296 -0.1565  0.9019  1.8906
 3413SOL    HW211681   2.973   7.704   5.229 -0.8289 -1.7985 -1.1149
 3414SOL     OW11682   2.329   0.723  10.492  0.0785 -0.1521  0.2324
 3414SOL    HW111683   2.238   0.754  10.495  0.0354 -0.0339 -1.3944
 3414SOL    HW211684   2.337   0.667  10.569 -1.4045 -0.2225  0.3782
 3415SOL     OW11685   2.607   0.624  11.761 -0.4867  0.3366  0.5509
 3415SOL    HW111686   2.666   0.696  11.783 -0.0525  0.1819 -0.0962
 3415SOL    HW211687   2.613   0.616  11.666 -0.8900 -0.2469  0.5703
 3416SOL     OW11688   1.669   4.409   4.777 -0.8914  0.0657  0.0200
 3416SOL    HW111689   1.693   4.353   4.703  0.2853  0.0708  0.3664
 3416SOL    HW211690   1.626   4.350   4.839 -0.2552 -0.3206  0.0979
 3417SOL     OW11691   6.900   2.387   4.685  0.9784  0.3893 -0.6844
 3417SOL    HW111692   6.830   2.449   4.664 -1.4963 -1.6631  0.8682
 3417SOL    HW211693   6.895   2.321   4.615 -0.0157 -0.7446  0.3895
 3418SOL     OW11694   3.833   1.586   8.260  0.2941 -0.1223  0.2052
 3418SOL    HW111695   3.773   1.646   8.303  0.6424  1.2928 -1.1898
 3418SOL    HW211696   3.855   1.522   8.327 -1.5136  0.2402  1.2115
 3419SOL     OW11697   4.290   3.056   1.997  0.5546  0.3079 -0.0895
 3419SOL    HW111698   4.366   3.007   2.028  0.9510  1.7586  1.3168
 3419SOL    HW211699   4.286   3.035   1.903  2.1024 -0.5365 -0.0092
 3420SOL     OW11700   0.342   3.678   1.844  0.2393 -0.4555 -0.0597
 3420SOL    HW111701   0.416   3.696   1.901 -0.3432 -0.7688  0.8157
 3420SOL    HW211702   0.318   3.588   1.864 -0.3738 -0.3554 -0.3314
 3421SOL     OW11703   0.152   2.691   1.180  0.0707 -0.1970  0.1810
 3421SOL    HW111704   0.181   2.705   1.090  2.7880 -2.0190  0.6456
 3421SOL    HW211705   0.116   2.775   1.208 -0.7984  0.4096 -2.5533
 3422SOL     OW11706   7.437   3.834   7.160  0.1913  0.2968  0.4991
 3422SOL    HW111707   7.517   3.880   7.133 -0.1805 -0.2636 -1.7466
 3422SOL    HW211708   7.401   3.888   7.230  1.0454  2.1264 -0.3927
 3423SOL     OW11709   4.942   0.114   6.123  0.6275  0.1700 -0.1905
 3423SOL    HW111710   4.961   0.131   6.216  0.2173  1.3266 -0.2994
 3423SOL    HW211711   4.847   0.120   6.117  0.7392  1.9837 -0.9875
 3424SOL     OW11712   3.892   4.027   1.446  0.7596  0.1529 -0.1300
 3424SOL    HW111713   3.936   4.049   1.364 -0.0853  0.2153 -0.5817
 3424SOL    HW211714   3.799   4.046   1.429  0.6015  0.4134  0.9191
 3425SOL     OW11715   1.072   7.352   3.227 -0.2659  0.3086  0.0832
 3425SOL    HW111716   1.145   7.410   3.251 -0.1477  0.0500  0.3468
 3425SOL    HW211717   1.039   7.319   3.310 -1.4149  1.3008  0.0415
 3426SOL     OW11718   6.188   2.886   9.384 -0.3627 -0.8138 -0.3228
 3426SOL    HW111719   6.133   2.962   9.402  0.0049 -0.7621  0.6616
 3426SOL    HW211720   6.126   2.817   9.360 -0.8047 -0.5419  0.0072
 3427SOL     OW11721   4.465   6.285   0.100 -0.0237 -0.3938 -0.4042
 3427SOL    HW111722   4.431   6.308   0.013 -1.0394 -0.3713 -0.0086
 3427SOL    HW211723   4.453   6.364   0.153 -0.6018 -0.8070  0.0966
 3428SOL     OW11724   5.035   0.972  10.849 -0.1990 -0.1951 -0.6055
 3428SOL    HW111725   4.955   0.932  10.885  0.0823  0.2327  0.5355
 3428SOL    HW211726   5.042   1.056  10.895  3.6215 -2.2592  3.3091
 3429SOL     OW11727   6.002   6.896   5.053  0.1670 -0.1463 -0.0751
 3429SOL    HW111728   6.039   6.865   5.135 -0.2043 -1.3442 -0.3302
 3429SOL    HW211729   5.908   6.901   5.070 -0.3075 -3.2483 -1.2122
 3430SOL     OW11730   0.808   1.053   3.493  0.2250  0.2328  0.2958
 3430SOL    HW111731   0.806   1.126   3.556 -1.0610  0.2439  0.2842
 3430SOL    HW211732   0.896   1.056   3.456  0.1742  1.8841  0.1933
 3431SOL     OW11733   6.498   0.556   8.655  0.2084 -0.2554  0.1922
 3431SOL    HW111734   6.458   0.537   8.570  1.9302  0.9191 -0.9357
 3431SOL    HW211735   6.423   0.573   8.713 -0.9838  1.7203 -1.7800
 3432SOL     OW11736   6.060   1.981   2.330  0.3689  0.1765  0.0820
 3432SOL    HW111737   6.108   2.014   2.254 -0.2976  2.4097  0.5620
 3432SOL    HW211738   5.972   1.962   2.297  0.8272 -1.5548 -0.2577
 3433SOL     OW11739   2.503   0.337   6.818  0.6357  0.5730  0.0566
 3433SOL    HW111740   2.452   0.378   6.747  0.3266  1.2733  0.6700
 3433SOL    HW211741   2.571   0.401   6.838 -0.3830  1.2078  1.6273
 3434SOL     OW11742   4.141   6.387   5.334  0.2928  0.0733  0.4757
 3434SOL    HW111743   4.178   6.471   5.307  0.5830  0.2636  1.4133
 3434SOL    HW211744   4.068   6.372   5.274  0.1749  1.0512  0.3582
 3435SOL     OW11745   6.447   2.230   5.384  0.0317  0.1501 -0.1008
 3435SOL    HW111746   6.394   2.230   5.464  0.8173 -1.0156  0.4574
 3435SOL    HW211747   6.526   2.277   5.408 -0.2736  0.9500 -0.6109
 3436SOL     OW11748   6.827   0.763   3.319 -0.3492 -0.3835  0.5846
 3436SOL    HW111749   6.737   0.793   3.334 -0.3832  0.8941 -1.7979
 3436SOL    HW211750   6.820   0.705   3.243  0.7677 -0.7634  0.7652
 3437SOL     OW11751   1.747   2.693   6.537  0.2510 -0.1628 -0.2295
 3437SOL    HW111752   1.689   2.769   6.540  0.8651  0.3005  0.1451
 3437SOL    HW211753   1.774   2.688   6.445 -1.0810 -0.9355 -0.6049
 3438SOL     OW11754   7.888   3.983   1.105  0.0184 -0.2958  0.5475
 3438SOL    HW111755   7.878   4.060   1.160 -1.9944  0.6134 -0.9324
 3438SOL    HW211756   7.805   3.936   1.115 -0.2370 -0.3195 -1.2800
 3439SOL     OW11757   4.498   2.469   2.294 -0.1920 -0.0580  0.2421
 3439SOL    HW111758   4.555   2.533   2.252 -2.8737  1.1758 -1.8078
 3439SOL    HW211759   4.449   2.519   2.359  0.1702 -0.8224  1.1208
 3440SOL     OW11760   0.052   4.646   9.058 -0.4209 -0.3642 -0.1930
 3440SOL    HW111761   0.091   4.614   8.977  2.3854  0.7277  0.6058
 3440SOL    HW211762   0.071   4.578   9.122  1.3182  0.6856  0.4595
 3441SOL     OW11763   2.409   2.064   3.681 -0.2242  0.2573 -0.3683
 3441SOL    HW111764   2.469   2.120   3.732  0.7400 -0.0632 -1.1289
 3441SOL    HW211765   2.423   1.976   3.716  0.5448  0.0138 -1.2673
 3442SOL     OW11766   6.493   4.680  10.034 -0.0918  0.2301  0.1593
 3442SOL    HW111767   6.458   4.760   9.994  0.9029  0.5382 -0.1135
 3442SOL    HW211768   6.454   4.679  10.122 -0.8201  0.5287 -0.1478
 3443SOL     OW11769   4.775   7.368   0.886  0.0502  0.2737 -0.1082
 3443SOL    HW111770   4.815   7.399   0.805 -2.3391  0.7145 -1.1868
 3443SOL    HW211771   4.730   7.444   0.922 -0.0928 -0.2632  0.8948
 3444SOL     OW11772   4.493   6.858   7.823  0.1103 -0.0442  0.0678
 3444SOL    HW111773   4.473   6.948   7.798 -0.2604  0.3705  1.7212
 3444SOL    HW211774   4.427   6.836   7.888  0.4297 -1.3835 -0.0321
 3445SOL     OW11775   4.552   6.005   1.776 -0.3123 -0.1387  0.6882
 3445SOL    HW111776   4.503   6.087   1.774  0.4229  0.3419  1.4768
 3445SOL    HW211777   4.540   5.973   1.865  1.8363  0.6665  1.3349
 3446SOL     OW11778   3.304   1.767   1.117  0.9168  0.0027 -0.4506
 3446SOL    HW111779   3.327   1.680   1.149  3.1957  0.9894  0.8135
 3446SOL    HW211780   3.323   1.826   1.190 -0.7599  1.5919 -1.1924
 3447SOL     OW11781   4.766   2.116   6.313 -0.3338 -0.7349 -0.0770
 3447SOL    HW111782   4.693   2.145   6.259  0.7340  1.3280 -0.4884
 3447SOL    HW211783   4.757   2.166   6.394  0.6232 -0.4395 -0.1426
 3448SOL     OW11784   4.341   2.139   3.525  0.5780 -0.9611 -0.6250
 3448SOL    HW111785   4.379   2.054   3.501 -0.5915 -1.3696 -1.0734
 3448SOL    HW211786   4.254   2.118   3.557  0.8831 -0.0835  0.8936
 3449SOL     OW11787   4.451   7.294   4.610  1.1302 -0.2454 -0.2261
 3449SOL    HW111788   4.474   7.281   4.518  1.9610  1.0067 -0.2199
 3449SOL    HW211789   4.360   7.324   4.608  1.0358 -0.5482 -0.6074
 3450SOL     OW11790   1.827   0.564   7.194 -0.7482  0.2088  0.4060
 3450SOL    HW111791   1.740   0.572   7.155  0.0320 -0.4463 -1.5927
 3450SOL    HW211792   1.837   0.644   7.246 -2.7891 -0.0430  1.2773
 3451SOL     OW11793   5.411   1.311   4.493  0.1617 -0.2757 -0.3251
 3451SOL    HW111794   5.400   1.279   4.583 -0.7577  1.3321  0.1703
 3451SOL    HW211795   5.420   1.231   4.440  1.8056 -1.2512  1.2873
 3452SOL     OW11796   5.446   4.847   2.874 -0.3350  0.8770  0.0652
 3452SOL    HW111797   5.527   4.889   2.844  1.2646 -1.4352  0.8804
 3452SOL    HW211798   5.423   4.788   2.802  0.8042 -1.1153  1.2440
 3453SOL     OW11799   6.056   1.461   3.292  0.1247 -0.1998 -0.2306
 3453SOL    HW111800   6.040   1.554   3.273  1.4748 -0.2151 -1.5847
 3453SOL    HW211801   6.150   1.456   3.308  0.0796 -1.3745 -0.2838
 3454SOL     OW11802   2.092   7.522   8.520  0.4351 -0.2197  0.1440
 3454SOL    HW111803   2.060   7.441   8.560  1.3361 -0.2973  0.7525
 3454SOL    HW211804   2.098   7.503   8.427  3.3963 -1.8973  0.5418
 3455SOL     OW11805   1.823   5.344   8.562 -0.5547  0.8694  0.3456
 3455SOL    HW111806   1.750   5.285   8.579 -1.7958  2.2917  0.1683
 3455SOL    HW211807   1.868   5.351   8.646  1.4246 -2.5181 -0.2383
 3456SOL     OW11808   1.315   1.249   0.688 -0.3772  0.4985 -0.0634
 3456SOL    HW111809   1.381   1.289   0.631 -1.0432  1.2237 -0.3463
 3456SOL    HW211810   1.303   1.313   0.758  0.2973 -0.3019  0.8000
 3457SOL     OW11811   0.658   5.541   1.740  0.5499 -0.3241  0.4785
 3457SOL    HW111812   0.600   5.479   1.785  1.0997 -1.8480 -0.8260
 3457SOL    HW211813   0.677   5.608   1.806 -3.5183  0.8837  0.6592
 3458SOL     OW11814   6.749   7.930   5.226 -0.4120 -0.2799 -0.4663
 3458SOL    HW111815   6.759   7.840   5.196 -0.3699 -0.1787 -0.7584
 3458SOL    HW211816   6.655   7.948   5.217 -0.3168 -0.0557 -1.1107
 3459SOL     OW11817   6.347   1.905   3.326  0.0728 -0.6833  0.0912
 3459SOL    HW111818   6.373   1.962   3.254  0.0189  1.9167  2.0256
 3459SOL    HW211819   6.253   1.894   3.315  0.2470 -1.4228 -0.9141
 3460SOL     OW11820   6.415   0.784   8.432 -0.5922  0.1964  0.2623
 3460SOL    HW111821   6.459   0.700   8.421  2.0665  1.4647  0.4760
 3460SOL    HW211822   6.438   0.811   8.521 -2.6351  0.5282  0.7348
 3461SOL     OW11823   3.918   4.887  12.468 -0.1853 -0.1151  0.1953
 3461SOL    HW111824   4.006   4.905  12.501  0.0434  2.4437 -1.5003
 3461SOL    HW211825   3.926   4.896  12.373 -2.3438  0.5453  0.0245
 3462SOL     OW11826   5.299   2.730   2.209 -0.1919  0.4486 -0.4846
 3462SOL    HW111827   5.347   2.736   2.291 -0.3900 -1.0265 -0.2225
 3462SOL    HW211828   5.327   2.806   2.158 -1.6231  2.5531  1.7233
 3463SOL     OW11829   6.418   4.335   7.138 -0.2084  0.4213  0.2136
 3463SOL    HW111830   6.477   4.394   7.184  1.1943  0.9801 -2.1373
 3463SOL    HW211831   6.380   4.389   7.069 -2.0838 -0.4353  0.5085
 3464SOL     OW11832   5.353   0.510   2.442 -0.2216  0.0952 -0.0610
 3464SOL    HW111833   5.361   0.543   2.532  2.1851 -0.9726  0.2242
 3464SOL    HW211834   5.363   0.587   2.387  0.4075  0.5125  0.6055
 3465SOL     OW11835   1.250   3.980   3.566 -0.1332 -0.1349  0.1489
 3465SOL    HW111836   1.225   4.018   3.482  0.8417  2.0649  0.7762
 3465SOL    HW211837   1.340   4.009   3.580  0.1497 -1.4646  1.4231
 3466SOL     OW11838   7.451   3.294   7.321 -0.5839 -0.3081 -0.2654
 3466SOL    HW111839   7.424   3.359   7.385  0.0915  0.0164 -0.2956
 3466SOL    HW211840   7.386   3.224   7.327 -0.6010 -0.2153  0.6749
 3467SOL     OW11841   6.729   6.420   9.312 -0.2810  0.5423 -0.2397
 3467SOL    HW111842   6.782   6.360   9.259 -1.3002 -0.8860  0.2879
 3467SOL    HW211843   6.781   6.501   9.316  0.5225  0.1633 -2.0852
 3468SOL     OW11844   5.269   6.903  10.703 -0.7719  0.3525  0.1659
 3468SOL    HW111845   5.240   6.826  10.752 -1.4067  1.4666  1.6571
 3468SOL    HW211846   5.363   6.910  10.723 -0.7432  0.0509  0.1416
 3469SOL     OW11847   6.143   4.457   3.129 -0.3295 -0.2761 -0.1189
 3469SOL    HW111848   6.120   4.412   3.210 -0.4786  2.6214  1.5900
 3469SOL    HW211849   6.234   4.432   3.113 -1.0110 -2.7700 -0.4850
 3470SOL     OW11850   4.780   2.008   1.140 -0.5627  0.2757 -0.4847
 3470SOL    HW111851   4.688   2.002   1.166 -1.4563  0.8985 -3.1926
 3470SOL    HW211852   4.827   1.953   1.204 -2.7701 -0.0215  0.9862
 3471SOL     OW11853   4.445   0.255  11.526 -0.7955 -0.3279  0.0962
 3471SOL    HW111854   4.467   0.347  11.537 -0.4677 -0.5078  1.0716
 3471SOL    HW211855   4.394   0.251  11.445  1.1864  0.3713 -1.2610
 3472SOL     OW11856   2.767   2.516   2.934  0.3196 -0.8135 -0.2628
 3472SOL    HW111857   2.698   2.513   2.999  1.6601 -1.7300  1.1826
 3472SOL    HW211858   2.843   2.551   2.981  0.8630  0.2087 -1.8090
 3473SOL     OW11859   5.232   4.521   6.167 -0.7490 -0.8039 -0.2183
 3473SOL    HW111860   5.278   4.460   6.110  1.2969  1.3686 -1.0759
 3473SOL    HW211861   5.161   4.555   6.113 -0.0598 -0.2534 -0.7923
 3474SOL     OW11862   6.595   1.342   4.492 -0.8546 -0.3800 -0.1060
 3474SOL    HW111863   6.535   1.369   4.562  0.3108 -1.6828  1.4655
 3474SOL    HW211864   6.540   1.293   4.431 -2.0384  1.4007 -0.5317
 3475SOL     OW11865   0.045   7.108  10.206  0.0664 -0.0461  0.2903
 3475SOL    HW111866   0.133   7.120  10.241 -0.0787 -0.3443  0.7602
 3475SOL    HW211867   0.054   7.036  10.143  0.5706  1.2672 -1.2049
 3476SOL     OW11868   5.280   5.218   0.559  0.5181 -0.3537 -0.1652
 3476SOL    HW111869   5.284   5.312   0.576  0.6659 -0.5638  1.0936
 3476SOL    HW211870   5.190   5.193   0.579  1.0683 -0.8645  1.9261
 3477SOL     OW11871   3.533   1.643  11.079  0.0612  0.0709 -0.5858
 3477SOL    HW111872   3.607   1.585  11.060  1.1776  1.3700 -0.3654
 3477SOL    HW211873   3.484   1.645  10.997  0.5751 -0.3689 -0.9156
 3478SOL     OW11874   1.015   1.263  11.722  0.1887  0.1242 -0.3011
 3478SOL    HW111875   1.020   1.306  11.807  0.0862 -0.6553  0.1043
 3478SOL    HW211876   0.981   1.176  11.740 -0.7764  0.2681 -1.2608
 3479SOL     OW11877   7.292   0.905   9.743  0.9073 -0.0897  0.4421
 3479SOL    HW111878   7.220   0.941   9.794  1.4231 -0.0413  1.1596
 3479SOL    HW211879   7.255   0.828   9.700  0.7004 -0.7062  1.6766
 3480SOL     OW11880   0.949   4.772   9.820  0.5775  0.4855 -0.2425
 3480SOL    HW111881   1.033   4.793   9.778  0.6647  4.1605  1.4411
 3480SOL    HW211882   0.962   4.684   9.856  3.2518  0.4688 -1.0227
 3481SOL     OW11883   0.687   7.864   7.383  0.0143  0.2629  0.0933
 3481SOL    HW111884   0.635   7.788   7.356  0.4724  0.2307 -0.7510
 3481SOL    HW211885   0.742   7.831   7.454  1.6067 -0.7796 -1.5130
 3482SOL     OW11886   0.530   5.687   3.139  0.2078  0.6564 -0.1292
 3482SOL    HW111887   0.479   5.688   3.057  0.8056  2.9252 -0.5413
 3482SOL    HW211888   0.589   5.613   3.129  0.6737  1.2305 -2.0483
 3483SOL     OW11889   7.887   0.516   0.786  0.0475  0.3763  0.1520
 3483SOL    HW111890   7.807   0.560   0.815 -0.1645  0.1884 -0.1424
 3483SOL    HW211891   7.917   0.467   0.863 -0.7805 -0.5127 -0.0629
 3484SOL     OW11892   7.893   2.404   5.334  0.6802 -0.1950  0.1659
 3484SOL    HW111893   7.817   2.429   5.282  1.5098  0.6596 -0.6716
 3484SOL    HW211894   7.960   2.384   5.269  1.1114 -1.1609  0.8915
 3485SOL     OW11895   7.096   3.534   7.466 -0.0504 -0.3289  0.1461
 3485SOL    HW111896   7.088   3.629   7.468 -0.0820 -0.2917 -1.0497
 3485SOL    HW211897   7.171   3.517   7.410 -1.4123 -1.0304 -1.5663
 3486SOL     OW11898   4.397   7.832   8.072  0.1653 -0.1816  0.7865
 3486SOL    HW111899   4.422   7.786   7.992 -0.2845  0.2607  0.3786
 3486SOL    HW211900   4.316   7.878   8.049  1.5787  2.3876  0.5386
 3487SOL     OW11901   2.638   3.867   6.099  0.4313 -0.0507 -0.1904
 3487SOL    HW111902   2.672   3.781   6.125  0.0779 -0.0679  0.2479
 3487SOL    HW211903   2.543   3.855   6.099  0.3970  0.1886 -0.6886
 3488SOL     OW11904   7.204   6.633   8.443  0.4715 -0.2971  0.2091
 3488SOL    HW111905   7.202   6.545   8.404 -3.1538 -0.1923 -0.2283
 3488SOL    HW211906   7.200   6.692   8.369  0.8091  0.1700  0.5599
 3489SOL     OW11907   1.742   1.343   3.087  0.2379 -0.2774  0.0516
 3489SOL    HW111908   1.786   1.259   3.076  0.5960 -0.0829 -0.0258
 3489SOL    HW211909   1.664   1.323   3.139  0.2909 -0.6650 -0.0178
 3490SOL     OW11910   2.116   7.197   8.562 -0.5532 -0.5523  0.0572
 3490SOL    HW111911   2.038   7.250   8.548 -0.0842  0.4683  1.0930
 3490SOL    HW211912   2.142   7.167   8.475  0.7100  3.1812 -1.0201
 3491SOL     OW11913   1.176   3.846   5.021 -0.0388  0.4504  0.2616
 3491SOL    HW111914   1.099   3.797   5.050  0.6136 -0.9090 -0.2219
 3491SOL    HW211915   1.141   3.919   4.971 -1.0210 -0.5320 -0.5343
 3492SOL     OW11916   4.812   3.659   1.356  0.3631  0.2204 -0.4597
 3492SOL    HW111917   4.814   3.581   1.300 -0.2475  0.6247 -1.0507
 3492SOL    HW211918   4.891   3.708   1.332  1.2110 -0.6005  0.5090
 3493SOL     OW11919   5.278   0.942   5.801  0.3070 -0.2688 -0.2634
 3493SOL    HW111920   5.330   0.908   5.728  0.7020  0.8757 -0.5327
 3493SOL    HW211921   5.342   0.971   5.866 -0.0234 -0.2117  0.0402
 3494SOL     OW11922   1.558   3.537   5.708 -0.2365  0.0320  0.1927
 3494SOL    HW111923   1.551   3.507   5.617  0.7527 -0.5475  0.2845
 3494SOL    HW211924   1.518   3.623   5.708 -1.6704 -0.6096 -0.4518
 3495SOL     OW11925   7.941   0.978   6.233 -0.0592 -0.1393 -0.0543
 3495SOL    HW111926   7.985   0.893   6.230 -0.5434 -0.3903 -0.1922
 3495SOL    HW211927   8.011   1.041   6.250  0.3037 -0.5665  0.0506
 3496SOL     OW11928   6.319   3.303   1.715 -0.0798  0.1783 -0.1469
 3496SOL    HW111929   6.280   3.383   1.751  1.1071  0.3338  0.8283
 3496SOL    HW211930   6.263   3.233   1.746 -1.2878  0.6286 -1.2220
 3497SOL     OW11931   6.782   4.046   5.302  0.2102 -0.2036 -0.0695
 3497SOL    HW111932   6.816   4.098   5.230 -0.2627  0.4212  0.1465
 3497SOL    HW211933   6.852   4.046   5.367  0.4078 -0.2652 -0.2809
 3498SOL     OW11934   0.887   6.269   9.375  0.9492  0.6734  0.1402
 3498SOL    HW111935   0.801   6.308   9.391  1.2673  0.6652  2.0122
 3498SOL    HW211936   0.909   6.298   9.286 -0.1711  2.2150  0.3187
 3499SOL     OW11937   4.792   5.426   8.471 -0.6784  0.8180 -0.1369
 3499SOL    HW111938   4.815   5.468   8.554  0.9911  0.1470 -0.1989
 3499SOL    HW211939   4.798   5.495   8.406 -0.3647  1.0118  0.0942
 3500SOL     OW11940   1.824   1.805   1.358 -1.0072  0.2460 -0.0950
 3500SOL    HW111941   1.819   1.861   1.436  0.5692 -0.4382  0.5442
 3500SOL    HW211942   1.828   1.716   1.392 -0.8132 -0.0989 -0.9869
 3501SOL     OW11943   3.695   6.964   9.043  0.3943 -0.8086  0.4744
 3501SOL    HW111944   3.703   7.058   9.028 -1.8612 -0.7257 -0.6212
 3501SOL    HW211945   3.679   6.927   8.956 -0.4219 -1.9766  1.0933
 3502SOL     OW11946   4.603   1.997   2.574  0.4915  0.6036 -0.7960
 3502SOL    HW111947   4.618   1.908   2.605  1.0967  1.5139  1.8067
 3502SOL    HW211948   4.682   2.021   2.526  0.8111  0.1259 -0.5047
 3503SOL     OW11949   1.083   1.321   1.261 -0.2490  0.7330  0.6857
 3503SOL    HW111950   1.143   1.307   1.334 -1.4230  2.1102  2.0061
 3503SOL    HW211951   0.996   1.304   1.298 -0.7968  0.0933 -0.8030
 3504SOL     OW11952   2.818   7.628   1.149 -0.4010  0.6808 -0.0372
 3504SOL    HW111953   2.858   7.650   1.065  1.0502 -2.9437 -0.4674
 3504SOL    HW211954   2.854   7.692   1.210 -1.2755  3.2294 -2.0254
 3505SOL     OW11955   5.453   2.188   1.797 -0.5251  0.4071 -0.0656
 3505SOL    HW111956   5.389   2.231   1.740  0.2738  0.9165 -0.5866
 3505SOL    HW211957   5.522   2.160   1.738 -0.0799  0.2108  0.5500
 3506SOL     OW11958   1.080   3.077   0.166 -0.2504 -0.4641  0.0786
 3506SOL    HW111959   1.006   3.022   0.140 -1.2473 -0.4795  2.6199
 3506SOL    HW211960   1.126   3.026   0.233 -0.9128  1.4617  2.1495
 3507SOL     OW11961   1.169   2.739   3.652  0.3616  0.3777 -0.1146
 3507SOL    HW111962   1.189   2.684   3.576 -0.1325  0.4822 -0.3253
 3507SOL    HW211963   1.082   2.774   3.634 -0.0970 -0.2142  0.8626
 3508SOL     OW11964   6.914   1.473   0.696 -0.4135  0.1812  0.3901
 3508SOL    HW111965   6.908   1.378   0.693  0.6050  0.0622  1.4650
 3508SOL    HW211966   6.994   1.495   0.649 -0.2074  0.4306  0.8430
 3509SOL     OW11967   1.242   1.070   8.735 -0.5879 -0.3491  0.0849
 3509SOL    HW111968   1.210   0.991   8.778  0.9169  0.0074  1.9807
 3509SOL    HW211969   1.309   1.104   8.794 -1.5465  2.6502 -0.3904
 3510SOL     OW11970   4.675   0.111  10.486 -0.2973  0.2876  0.2048
 3510SOL    HW111971   4.619   0.103  10.563  0.0005  0.9748  0.5050
 3510SOL    HW211972   4.681   0.022  10.450 -1.6562  0.2255  0.1081
 3511SOL     OW11973   0.388   3.826   6.617 -0.3403  0.4050  0.3622
 3511SOL    HW111974   0.383   3.756   6.551  0.3700  0.0407  0.6884
 3511SOL    HW211975   0.392   3.779   6.700 -1.4070  0.8610  0.6941
 3512SOL     OW11976   0.746   0.779   4.212  0.0386 -0.4086  0.5794
 3512SOL    HW111977   0.665   0.823   4.186 -0.2868 -0.4069  1.5663
 3512SOL    HW211978   0.743   0.776   4.308  1.3781 -0.0812  0.6561
 3513SOL     OW11979   4.736   6.920   6.277  0.4791 -0.3780 -0.3647
 3513SOL    HW111980   4.772   6.948   6.193 -0.3748 -1.8656 -1.2805
 3513SOL    HW211981   4.781   6.837   6.295 -0.0738 -0.5789  0.1172
 3514SOL     OW11982   6.051   5.033   5.393 -0.0801  0.0397 -0.2056
 3514SOL    HW111983   6.084   4.954   5.351 -2.0738  0.2684 -2.4148
 3514SOL    HW211984   5.962   5.011   5.420 -0.6188  1.4476 -0.7231
 3515SOL     OW11985   5.949   5.791  10.487  0.3650  0.5604 -0.6197
 3515SOL    HW111986   5.938   5.847  10.411  0.2141  1.4602  0.0439
 3515SOL    HW211987   5.896   5.714  10.469 -1.0768  1.5246 -0.6897
 3516SOL     OW11988   0.865   5.694   5.790  0.9640 -0.4479 -0.3732
 3516SOL    HW111989   0.888   5.647   5.870 -0.8354 -0.8270 -0.0308
 3516SOL    HW211990   0.866   5.787   5.815 -2.7491 -0.6463  1.1188
 3517SOL     OW11991   3.320   3.938   6.854 -0.3643  0.0642 -0.3680
 3517SOL    HW111992   3.274   3.942   6.770  0.4273  1.2073 -0.7627
 3517SOL    HW211993   3.297   4.019   6.899 -1.1476 -0.7445  0.7397
 3518SOL     OW11994   4.331   3.028   0.095 -0.6132  0.0044 -0.0185
 3518SOL    HW111995   4.324   2.939   0.060  1.1318  0.2204 -1.0211
 3518SOL    HW211996   4.360   3.016   0.185 -2.2824 -0.4771  0.4836
 3519SOL     OW11997   5.027   0.535  12.409  0.3341 -0.0786 -0.2014
 3519SOL    HW111998   4.960   0.518  12.476  0.3663 -0.6380 -0.3055
 3519SOL    HW211999   4.984   0.594  12.347  0.4267  0.7449  0.5047
 3520SOL     OW12000   6.248   4.491   1.754 -0.2216  0.3717 -0.1282
 3520SOL    HW112001   6.189   4.470   1.682  1.5125 -2.8262 -0.7965
 3520SOL    HW212002   6.294   4.570   1.725 -1.5301  0.7557 -1.2330
 3521SOL     OW12003   5.971   6.418   0.598  0.2606 -0.2105 -1.0344
 3521SOL    HW112004   5.923   6.340   0.626 -1.4104  1.0791 -0.1493
 3521SOL    HW212005   6.049   6.420   0.654  0.6206 -1.5345 -1.4621
 3522SOL     OW12006   2.149   4.061   6.924  0.0066 -0.0476 -0.2598
 3522SOL    HW112007   2.156   3.994   6.992  1.1810 -0.9094 -1.1889
 3522SOL    HW212008   2.176   4.017   6.843  2.3997  1.8828 -0.6467
 3523SOL     OW12009   2.274   1.953   5.187  0.1213 -0.0389  0.2786
 3523SOL    HW112010   2.245   1.999   5.265  1.8834  0.2669  0.7955
 3523SOL    HW212011   2.244   1.863   5.199 -0.0559  0.1221  1.0672
 3524SOL     OW12012   3.614   7.253   4.642  0.6437 -0.5995 -0.2028
 3524SOL    HW112013   3.672   7.329   4.649  1.0764 -0.9677  0.2682
 3524SOL    HW212014   3.543   7.282   4.585  0.5440  0.3324  0.3717
 3525SOL     OW12015   3.874   2.591   5.893  0.4301 -0.4774 -0.0533
 3525SOL    HW112016   3.863   2.683   5.916 -0.4271 -0.5332 -0.2210
 3525SOL    HW212017   3.846   2.585   5.802 -0.8717 -1.1579  0.3722
 3526SOL     OW12018   2.372   1.499  10.737 -0.0525  0.5164 -0.1246
 3526SOL    HW112019   2.428   1.490  10.814  0.3454  2.1774 -0.1812
 3526SOL    HW212020   2.430   1.537  10.670 -0.4107 -0.8143 -1.2432
 3527SOL     OW12021   7.795   0.155  11.391  0.3854  0.8611  0.2255
 3527SOL    HW112022   7.886   0.141  11.367  0.4514  0.9957  0.3910
 3527SOL    HW212023   7.756   0.195  11.314  0.3660  0.4294  0.0088
 3528SOL     OW12024   6.242   3.103  11.333  0.1817  0.5569 -0.3516
 3528SOL    HW112025   6.244   3.030  11.272  0.3368  0.1577  0.1226
 3528SOL    HW212026   6.328   3.144  11.325  1.8179 -1.9195  2.4615
 3529SOL     OW12027   7.562   7.702   5.755 -0.1161  0.3900  0.2574
 3529SOL    HW112028   7.539   7.674   5.666 -0.5934 -0.3992  0.6266
 3529SOL    HW212029   7.541   7.796   5.756  0.7788  0.6256 -0.7440
 3530SOL     OW12030   2.120   4.446   3.665 -0.4579 -0.3670  0.0063
 3530SOL    HW112031   2.141   4.439   3.758 -1.3824 -1.2008  0.1776
 3530SOL    HW212032   2.200   4.419   3.620  0.9830  2.7755  0.4487
 3531SOL     OW12033   3.639   7.248   6.156  0.2443 -1.0718 -0.1893
 3531SOL    HW112034   3.602   7.171   6.200  2.8192 -0.8524  2.6170
 3531SOL    HW212035   3.719   7.215   6.114  0.3889 -0.2683 -0.5639
 3532SOL     OW12036   7.173   7.201  10.560  0.0828  0.0775 -0.8087
 3532SOL    HW112037   7.149   7.112  10.531 -0.3877  0.6111 -2.1179
 3532SOL    HW212038   7.257   7.190  10.603 -0.0445 -1.0403 -0.8104
 3533SOL     OW12039   5.054   0.807   9.906  0.2560  0.1158 -0.4129
 3533SOL    HW112040   5.142   0.773   9.916  0.2633  0.3524  0.4730
 3533SOL    HW212041   5.064   0.902   9.910 -0.1066  0.1304  0.4757
 3534SOL     OW12042   4.522   6.364   6.840  0.3519 -0.4710  0.2124
 3534SOL    HW112043   4.486   6.446   6.874 -0.3229  0.2368 -1.9943
 3534SOL    HW212044   4.538   6.311   6.917 -0.2813  1.3036  1.6450
 3535SOL     OW12045   7.613   7.718   2.577 -0.3412 -0.1173  0.2307
 3535SOL    HW112046   7.589   7.810   2.592  1.4102  0.2210  1.2131
 3535SOL    HW212047   7.708   7.719   2.570 -0.1940 -2.0145  1.4512
 3536SOL     OW12048   0.828   4.942   7.264  0.5335 -0.1703  0.3527
 3536SOL    HW112049   0.839   4.918   7.171 -1.0295  0.4882 -0.0304
 3536SOL    HW212050   0.847   4.861   7.311  0.8219 -0.6654 -0.5722
 3537SOL     OW12051   7.638   5.023  10.738 -0.1439  0.2683  0.1780
 3537SOL    HW112052   7.685   5.088  10.789  0.3382 -0.0548  0.1483
 3537SOL    HW212053   7.667   4.939  10.773 -2.0398  0.0680  1.3930
 3538SOL     OW12054   2.272   4.859  10.610 -0.1501 -0.6405 -0.3565
 3538SOL    HW112055   2.245   4.834  10.698 -0.9299  1.5731  0.0798
 3538SOL    HW212056   2.329   4.935  10.622 -0.4203 -0.1719 -1.7766
 3539SOL     OW12057   3.676   5.820   5.721  0.1065  0.0947 -1.2247
 3539SOL    HW112058   3.704   5.868   5.642 -2.3147  1.3934 -1.3845
 3539SOL    HW212059   3.639   5.886   5.778 -0.7121 -1.2114 -0.1710
 3540SOL     OW12060   1.598   6.680   6.888 -0.0719 -0.2219  0.0748
 3540SOL    HW112061   1.585   6.775   6.888 -1.4724 -0.3991  0.2548
 3540SOL    HW212062   1.511   6.643   6.870  0.2694 -1.4930  0.9135
 3541SOL     OW12063   1.642   5.089   3.424 -1.0011  0.1454 -0.0085
 3541SOL    HW112064   1.631   5.014   3.483  0.5623  0.4993  0.7945
 3541SOL    HW212065   1.728   5.074   3.384 -1.0414  1.0949 -0.4576
 3542SOL     OW12066   5.169   1.480  10.348  0.0175  0.9428 -0.0901
 3542SOL    HW112067   5.150   1.438  10.432  0.8119  0.1151 -0.3094
 3542SOL    HW212068   5.198   1.568  10.372 -0.3214  0.9128  0.4664
 3543SOL     OW12069   6.609   0.707   0.570 -0.0535  1.2074  0.2856
 3543SOL    HW112070   6.697   0.686   0.540  0.1265  1.6467  0.4884
 3543SOL    HW212071   6.561   0.731   0.491  0.1730  1.5154  0.2368
 3544SOL     OW12072   6.670   3.602  11.686  0.8132 -0.0030 -0.2056
 3544SOL    HW112073   6.634   3.690  11.676  2.0259  0.4886 -0.4327
 3544SOL    HW212074   6.736   3.611  11.755 -0.8127 -1.3180  1.6510
 3545SOL     OW12075   6.169   5.463  12.003  0.3051  0.1924  0.1340
 3545SOL    HW112076   6.177   5.370  12.024  0.5088  0.0111 -0.7016
 3545SOL    HW212077   6.213   5.472  11.918 -0.2936  0.9221 -0.1092
 3546SOL     OW12078   7.083   3.079  11.838 -0.2052 -0.3172  0.0486
 3546SOL    HW112079   7.144   3.051  11.770 -0.1544 -0.0248 -0.0267
 3546SOL    HW212080   7.082   3.174  11.832 -1.3328 -0.3471 -0.5403
 3547SOL     OW12081   6.187   6.883   5.651 -0.3505  0.3324  0.1349
 3547SOL    HW112082   6.238   6.802   5.651 -0.6526  0.1017 -1.4855
 3547SOL    HW212083   6.252   6.953   5.653 -0.0724  0.0503  1.1002
 3548SOL     OW12084   5.525   6.296   6.838 -0.0920  0.2066 -0.8539
 3548SOL    HW112085   5.619   6.277   6.847  0.3165  2.3814  0.0065
 3548SOL    HW212086   5.483   6.233   6.897  1.0354  0.7737  0.6288
 3549SOL     OW12087   7.584   0.918   4.188  0.1487 -0.3140 -0.4252
 3549SOL    HW112088   7.516   0.985   4.184  0.0972 -0.1602  1.6074
 3549SOL    HW212089   7.637   0.931   4.110 -1.0599  0.7795 -1.0828
 3550SOL     OW12090   4.214   7.270   0.560  0.0251  0.2441  0.7610
 3550SOL    HW112091   4.225   7.235   0.472 -0.8288 -1.2023  1.2043
 3550SOL    HW212092   4.257   7.355   0.557  0.6445 -0.0913 -0.8431
 3551SOL     OW12093   4.904   7.279   0.381 -0.1041  0.2250 -0.4351
 3551SOL    HW112094   4.995   7.253   0.396 -0.0366 -0.3486 -1.6574
 3551SOL    HW212095   4.903   7.374   0.393 -0.1124 -0.0911  3.0592
 3552SOL     OW12096   4.391   6.758   5.133  0.2547  0.1684  0.9128
 3552SOL    HW112097   4.477   6.739   5.172  0.6926 -0.1815 -0.1792
 3552SOL    HW212098   4.355   6.672   5.114 -0.6426  0.2930  1.9596
 3553SOL     OW12099   7.683   0.175   1.454  0.1594 -0.0917  0.0520
 3553SOL    HW112100   7.733   0.234   1.398 -0.4812  0.4475  0.0422
 3553SOL    HW212101   7.640   0.232   1.517  0.9261 -0.6891  1.1683
 3554SOL     OW12102   1.964   5.543   6.653 -0.1002  0.0608 -0.4153
 3554SOL    HW112103   1.941   5.609   6.718 -3.3818 -3.1178  2.1363
 3554SOL    HW212104   1.903   5.558   6.581  0.1495  0.6743 -0.4963
 3555SOL     OW12105   6.881   5.715   7.716  0.3437 -0.3944 -0.0612
 3555SOL    HW112106   6.841   5.751   7.637  0.5206  0.7169  0.3415
 3555SOL    HW212107   6.965   5.679   7.686  0.9577  1.0932 -0.2014
 3556SOL     OW12108   5.652   3.752   0.387 -0.0196 -0.1497 -0.0364
 3556SOL    HW112109   5.671   3.735   0.295 -2.1735  0.8992 -0.7340
 3556SOL    HW212110   5.616   3.670   0.420 -1.2525  0.0899 -0.7392
 3557SOL     OW12111   4.621   0.139   3.836 -0.4894 -0.2658 -0.1312
 3557SOL    HW112112   4.526   0.153   3.826 -0.8386 -2.4111 -0.3521
 3557SOL    HW212113   4.658   0.167   3.753 -1.0547 -0.2364 -0.3808
 3558SOL     OW12114   7.675   6.689   3.529  0.0829  0.0341 -0.5510
 3558SOL    HW112115   7.615   6.714   3.458 -1.4077  2.4970  1.3989
 3558SOL    HW212116   7.670   6.594   3.532 -1.1328 -0.0383 -2.6087
 3559SOL     OW12117   3.036   1.311   7.741 -0.0904  0.4400  0.2567
 3559SOL    HW112118   2.972   1.297   7.671 -1.6490  1.0094  1.4878
 3559SOL    HW212119   3.037   1.229   7.789 -0.9900  0.8804  1.0609
 3560SOL     OW12120   1.021   5.328   9.016  0.1844 -0.0823  0.0149
 3560SOL    HW112121   0.970   5.339   8.936 -0.4198 -1.2481  0.2242
 3560SOL    HW212122   1.031   5.234   9.026  0.5309  0.0528  1.1419
 3561SOL     OW12123   7.334   1.185   6.207 -0.8343 -0.1306  0.2727
 3561SOL    HW112124   7.375   1.267   6.234 -1.5920  0.3300  0.0735
 3561SOL    HW212125   7.386   1.117   6.248 -1.2313  0.5084  1.9121
 3562SOL     OW12126   2.810   3.349   0.737  0.0313  0.6032 -0.2113
 3562SOL    HW112127   2.877   3.393   0.791 -0.7837  1.3610  0.2049
 3562SOL    HW212128   2.755   3.304   0.800 -0.7182  1.1994 -0.4253
 3563SOL     OW12129   7.502   1.955   9.612  0.6369  0.2089 -0.3627
 3563SOL    HW112130   7.555   2.016   9.662 -0.8317  1.0735  0.1900
 3563SOL    HW212131   7.473   2.005   9.536  1.4292 -0.5753 -1.2205
 3564SOL     OW12132   7.597   0.353  10.032  0.7314  0.2703  0.3967
 3564SOL    HW112133   7.629   0.341  10.121  0.9753  0.2217  0.3019
 3564SOL    HW212134   7.656   0.418   9.993 -1.0173  2.4683  1.1525
 3565SOL     OW12135   0.418   4.465   6.073  0.0216  0.0352 -0.1159
 3565SOL    HW112136   0.443   4.556   6.091 -0.1963  0.3451 -1.2610
 3565SOL    HW212137   0.486   4.412   6.113  0.5939  0.7416 -0.1358
 3566SOL     OW12138   5.487   0.638  12.185 -0.3408  0.6266 -0.0178
 3566SOL    HW112139   5.579   0.635  12.158 -0.3392 -1.1654  0.0816
 3566SOL    HW212140   5.464   0.731  12.181  1.0747  0.9636 -1.3768
 3567SOL     OW12141   6.672   4.825   9.601  0.2805  0.4013 -0.2760
 3567SOL    HW112142   6.583   4.861   9.606 -0.4754 -1.2691 -1.2000
 3567SOL    HW212143   6.721   4.890   9.551 -0.6067  0.9967 -0.3955
 3568SOL     OW12144   1.217   4.597   0.281 -0.0627  0.4701 -0.1225
 3568SOL    HW112145   1.277   4.550   0.224  0.1716  0.2382  0.3091
 3568SOL    HW212146   1.142   4.537   0.292 -0.3077  0.6987 -0.5433
 3569SOL     OW12147   2.778   5.784   4.808 -0.1052  1.0767  0.0151
 3569SOL    HW112148   2.710   5.825   4.862 -0.9682 -0.3581  0.0831
 3569SOL    HW212149   2.783   5.694   4.841  1.9581  1.1848  0.1029
 3570SOL     OW12150   1.488   4.773   7.694  0.4832  0.6187 -0.4781
 3570SOL    HW112151   1.527   4.688   7.677  0.5426  0.4091  0.6217
 3570SOL    HW212152   1.476   4.812   7.608 -0.2435 -0.8102 -1.0569
 3571SOL     OW12153   1.439   3.031   3.178  0.2082  0.3258  0.1178
 3571SOL    HW112154   1.463   3.035   3.270 -0.8243 -0.4339  0.4437
 3571SOL    HW212155   1.366   3.092   3.169  0.9432  1.1564 -0.4360
 3572SOL     OW12156   4.126   5.414   0.096  0.1616  0.2403  0.0096
 3572SOL    HW112157   4.086   5.487   0.048  1.5447 -0.3212 -2.1154
 3572SOL    HW212158   4.163   5.455   0.174 -0.7602  1.4871 -0.1675
 3573SOL     OW12159   6.406   3.290   9.611  0.3076 -0.1469  0.3886
 3573SOL    HW112160   6.376   3.259   9.696 -1.3846  0.5206  0.0603
 3573SOL    HW212161   6.328   3.325   9.569  1.1570 -0.2450 -1.3537
 3574SOL     OW12162   2.396   7.872   3.405 -0.0519  0.4243 -0.0702
 3574SOL    HW112163   2.424   7.908   3.321 -0.3921  0.7898 -0.0286
 3574SOL    HW212164   2.472   7.822   3.436 -0.1275 -0.2222 -0.8745
 3575SOL     OW12165   3.737   3.811  10.488 -0.9468  0.0458  0.5254
 3575SOL    HW112166   3.815   3.861  10.461 -0.0176 -1.1439  0.9177
 3575SOL    HW212167   3.663   3.863  10.455 -0.0316  1.6098  0.8186
 3576SOL     OW12168   1.613   7.903   9.297 -0.1646  0.1948 -0.0975
 3576SOL    HW112169   1.635   7.810   9.284  0.9306  0.3243  0.7097
 3576SOL    HW212170   1.586   7.909   9.388  1.2886  0.9313  0.3110
 3577SOL     OW12171   1.336   6.037   4.024  0.3095  0.3838  0.0815
 3577SOL    HW112172   1.343   6.097   4.098  2.8103 -0.1410  0.3413
 3577SOL    HW212173   1.247   6.051   3.991 -1.1325  0.2796  3.4512
 3578SOL     OW12174   3.592   5.632   9.713  0.0685  0.5626  0.8046
 3578SOL    HW112175   3.614   5.546   9.678  1.6587  1.1064  0.3795
 3578SOL    HW212176   3.499   5.643   9.694  0.2158 -0.4013 -0.5730
 3579SOL     OW12177   1.816   0.720   9.694  0.3052 -0.6230  0.4613
 3579SOL    HW112178   1.883   0.786   9.716  0.9954 -1.4507  0.8880
 3579SOL    HW212179   1.784   0.689   9.778 -0.9087  0.0251  0.2626
 3580SOL     OW12180   6.540   4.986   2.939 -0.0496  0.5609 -0.1195
 3580SOL    HW112181   6.608   4.942   2.990 -0.1369  0.4300 -0.1158
 3580SOL    HW212182   6.572   4.984   2.849 -1.4099 -2.2225 -0.6509
 3581SOL     OW12183   1.516   3.636  11.217 -0.0481  0.4599  0.0354
 3581SOL    HW112184   1.491   3.715  11.265  0.0575  0.0398  0.8042
 3581SOL    HW212185   1.515   3.662  11.125  0.7176  1.5572  0.3222
 3582SOL     OW12186   7.915   5.519   4.339  0.7669 -0.6598  0.1160
 3582SOL    HW112187   7.928   5.512   4.434  1.6485  0.7840  0.1205
 3582SOL    HW212188   7.836   5.572   4.329  2.9812  2.9956  0.1349
 3583SOL     OW12189   1.348   5.523   0.516  0.1035  0.3285  0.2671
 3583SOL    HW112190   1.417   5.589   0.516 -0.7012  1.3393 -2.8405
 3583SOL    HW212191   1.273   5.566   0.474 -1.4841 -1.6284  0.9236
 3584SOL     OW12192   6.108   0.207   6.980 -0.3067  0.3662  0.6298
 3584SOL    HW112193   6.025   0.178   7.018 -1.2393  0.5863 -1.1464
 3584SOL    HW212194   6.140   0.132   6.931  1.1566 -0.0892  2.1689
 3585SOL     OW12195   3.307   6.269   9.169 -0.1344 -0.7106  0.0492
 3585SOL    HW112196   3.385   6.246   9.220  1.2323 -1.1331 -2.0885
 3585SOL    HW212197   3.328   6.240   9.080 -2.5068 -0.2459 -0.7223
 3586SOL     OW12198   1.038   5.449   0.944  0.3296 -0.3072  0.6078
 3586SOL    HW112199   1.040   5.357   0.917 -0.5089  0.3054 -1.8442
 3586SOL    HW212200   1.079   5.496   0.871 -2.8795  1.6156 -0.1772
 3587SOL     OW12201   0.479   1.125  11.121  0.1676 -0.6246 -0.5070
 3587SOL    HW112202   0.414   1.066  11.161  1.1984 -1.7877 -0.4878
 3587SOL    HW212203   0.549   1.130  11.186  0.3831  0.1332 -0.7870
 3588SOL     OW12204   3.911   7.679  12.372  0.1000  0.2060  0.5195
 3588SOL    HW112205   3.940   7.710  12.287  1.3087  0.2241  0.9173
 3588SOL    HW212206   3.936   7.587  12.374 -0.5657  0.0205  0.5903
 3589SOL     OW12207   7.372   4.347   1.055  0.2706  0.1929 -0.1114
 3589SOL    HW112208   7.463   4.319   1.067  0.1177 -0.5628 -0.6470
 3589SOL    HW212209   7.340   4.362   1.144  0.8321  0.1786  0.0982
 3590SOL     OW12210   2.844   2.798   6.984 -0.0727 -0.2763 -0.0878
 3590SOL    HW112211   2.853   2.749   7.066  1.0462  1.1031  0.6557
 3590SOL    HW212212   2.770   2.756   6.939 -2.0118  0.1398  2.4980
 3591SOL     OW12213   6.579   5.892   3.933 -0.6814  0.0323 -0.0611
 3591SOL    HW112214   6.612   5.936   4.011 -0.9141  0.1221 -0.0129
 3591SOL    HW212215   6.584   5.958   3.863 -1.3369  0.2411  0.0835
 3592SOL     OW12216   6.686   4.105   6.253  0.0932  0.1125 -0.3296
 3592SOL    HW112217   6.630   4.064   6.318 -0.5063 -0.7274 -1.3320
 3592SOL    HW212218   6.756   4.146   6.303 -1.0067  0.5486  0.9063
 3593SOL     OW12219   0.059   7.287   7.525  0.0242  0.3673  0.4555
 3593SOL    HW112220   0.128   7.338   7.567  0.7795  0.8188 -1.2534
 3593SOL    HW212221   0.101   7.250   7.447 -1.9166  1.5984 -1.2689
 3594SOL     OW12222   4.973   2.418   3.574 -0.0545 -0.2579  0.0253
 3594SOL    HW112223   4.966   2.337   3.624 -1.4965 -1.3118 -1.7644
 3594SOL    HW212224   4.987   2.390   3.484  0.8563  1.5429 -0.4449
 3595SOL     OW12225   5.542   0.545  11.369 -0.0358 -0.0738 -0.3189
 3595SOL    HW112226   5.560   0.599  11.445 -0.2423  0.5523 -0.7082
 3595SOL    HW212227   5.552   0.604  11.294 -0.5554 -0.4932 -0.7308
 3596SOL     OW12228   1.531   3.983   3.600  0.0363  0.4840  0.1767
 3596SOL    HW112229   1.526   4.077   3.618 -0.0462  0.3095  1.1382
 3596SOL    HW212230   1.576   3.947   3.676  0.6275 -0.1799 -0.4786
 3597SOL     OW12231   7.775   6.394  10.507  0.6900  0.5883 -0.2564
 3597SOL    HW112232   7.688   6.420  10.538  0.9875  0.7776  0.4517
 3597SOL    HW212233   7.835   6.431  10.572  1.1940 -0.9709  0.2118
 3598SOL     OW12234   0.023   4.608   4.196 -0.2974  0.4428  0.1529
 3598SOL    HW112235   0.107   4.594   4.151 -0.5015  0.5792 -0.2759
 3598SOL    HW212236  -0.007   4.521   4.220  0.7889  0.4838  1.8376
 3599SOL     OW12237   3.590   6.430   5.571  0.2188  0.3520  0.0347
 3599SOL    HW112238   3.562   6.522   5.573  0.7468  0.5101  0.3638
 3599SOL    HW212239   3.516   6.382   5.607 -0.4143  0.5523 -0.9559
 3600SOL     OW12240   2.645   4.342   2.281  0.7159 -0.4406  0.3844
 3600SOL    HW112241   2.725   4.344   2.228 -0.5399  0.9160 -1.6031
 3600SOL    HW212242   2.583   4.291   2.229  0.0184 -0.7636  1.5032
 3601SOL     OW12243   1.617   3.853   7.032 -0.5780 -0.0798  0.0204
 3601SOL    HW112244   1.594   3.895   7.115  1.8548  1.4748 -0.0020
 3601SOL    HW212245   1.702   3.813   7.048 -1.9349 -3.4794 -0.5580
 3602SOL     OW12246   1.062   0.101   8.168  0.2673  0.1755 -0.0881
 3602SOL    HW112247   1.128   0.050   8.123  1.1213  1.2541 -0.0953
 3602SOL    HW212248   1.062   0.186   8.123  0.7049  1.0653  1.5038
 3603SOL     OW12249   6.153   3.442   9.276 -0.2161 -0.1401  0.2350
 3603SOL    HW112250   6.187   3.530   9.291  2.1770 -0.8150 -0.7299
 3603SOL    HW212251   6.087   3.453   9.208 -0.8179  1.0243  0.9682
 3604SOL     OW12252   0.542   4.648  10.420  0.3084 -0.0010  0.1300
 3604SOL    HW112253   0.585   4.621  10.501  0.3662 -0.1471  0.0492
 3604SOL    HW212254   0.591   4.725  10.391 -0.0464  0.3875  0.5238
 3605SOL     OW12255   2.636   3.183   8.271  0.0470 -0.4311  0.1898
 3605SOL    HW112256   2.680   3.098   8.278  1.1322  0.1649  0.8557
 3605SOL    HW212257   2.543   3.163   8.284  0.3654 -1.4248  1.0339
 3606SOL     OW12258   2.061   5.636   7.914  0.3887 -0.0349  0.0897
 3606SOL    HW112259   1.993   5.682   7.866 -0.9178 -0.4620  1.4523
 3606SOL    HW212260   2.015   5.565   7.960  1.7452 -0.3446  1.0581
 3607SOL     OW12261   4.925   5.171  10.186  0.1580 -0.9012 -0.4362
 3607SOL    HW112262   4.896   5.258  10.158  1.5962 -0.2187  0.1194
 3607SOL    HW212263   4.995   5.188  10.249 -1.8827 -2.3528  2.4732
 3608SOL     OW12264   6.848   0.177   1.554  0.2622  0.3575 -0.2965
 3608SOL    HW112265   6.887   0.245   1.499  0.4516  0.9782  0.5727
 3608SOL    HW212266   6.764   0.214   1.581  0.5173  0.4225  0.4632
 3609SOL     OW12267   4.326   1.363   5.299 -0.3368  0.5413 -0.1764
 3609SOL    HW112268   4.306   1.441   5.350 -1.0301 -0.0874  0.5591
 3609SOL    HW212269   4.262   1.364   5.228  0.0881  0.9859 -0.5533
 3610SOL     OW12270   7.779   0.838  12.283 -0.2904  0.1354 -0.6342
 3610SOL    HW112271   7.735   0.907  12.332  1.0863  0.9461 -0.4852
 3610SOL    HW212272   7.740   0.842  12.195 -1.9323 -0.5466  0.0322
 3611SOL     OW12273   0.824   6.607  11.783  0.0694  0.4954  0.3062
 3611SOL    HW112274   0.821   6.561  11.866 -1.2481  2.2332  1.2739
 3611SOL    HW212275   0.898   6.667  11.791  2.0899 -1.6417 -1.1340
 3612SOL     OW12276   2.798   4.666   6.411 -0.2912  0.8033 -0.5622
 3612SOL    HW112277   2.883   4.623   6.416 -0.2957  0.9405  1.0668
 3612SOL    HW212278   2.764   4.664   6.500 -1.9368  0.9055 -1.1441
 3613SOL     OW12279   2.356   2.656   7.215 -0.0644 -0.4565 -0.2431
 3613SOL    HW112280   2.441   2.631   7.180 -0.3517 -0.0656 -1.2544
 3613SOL    HW212281   2.315   2.573   7.240 -0.4329 -0.9075 -2.2089
 3614SOL     OW12282   4.268   6.635   3.983  0.0225 -0.0358 -0.3808
 3614SOL    HW112283   4.332   6.571   4.011  0.2437 -0.4252 -1.7268
 3614SOL    HW212284   4.248   6.612   3.892  0.0913  1.7662 -0.9038
 3615SOL     OW12285   6.346   6.000   9.630  0.2471 -0.0111  0.0940
 3615SOL    HW112286   6.285   6.001   9.557  0.3412 -2.9135 -0.1156
 3615SOL    HW212287   6.301   5.948   9.698  2.3049 -2.0469  0.0027
 3616SOL     OW12288   0.592   7.084   4.214 -0.0478 -0.1426  0.1628
 3616SOL    HW112289   0.554   7.023   4.151  2.3151  0.1862 -1.7419
 3616SOL    HW212290   0.666   7.037   4.252  0.3584  0.7011  0.4497
 3617SOL     OW12291   7.308   7.486   7.510 -0.1056  0.2664 -0.5094
 3617SOL    HW112292   7.235   7.499   7.572  0.7749 -1.0351  0.8498
 3617SOL    HW212293   7.269   7.504   7.425 -2.3045 -1.2699  0.0714
 3618SOL     OW12294   3.599   0.739   1.219 -0.0691  0.1470  0.2534
 3618SOL    HW112295   3.646   0.662   1.250 -0.2182  0.5829  1.6585
 3618SOL    HW212296   3.620   0.745   1.126 -1.2222 -2.4170 -0.2557
 3619SOL     OW12297   2.304   0.816  10.984  0.3308  0.4006 -0.3660
 3619SOL    HW112298   2.379   0.767  10.951  0.4856 -0.2231  0.8422
 3619SOL    HW212299   2.294   0.889  10.923  0.5754 -0.7021 -1.7787
 3620SOL     OW12300   1.779   0.008   9.498  0.8242 -0.1619 -0.0328
 3620SOL    HW112301   1.694  -0.001   9.542  1.3509 -0.4833  0.9624
 3620SOL    HW212302   1.758   0.010   9.405 -0.6192  3.5883  0.2039
 3621SOL     OW12303   4.148   6.685   5.734  0.1061  0.3840 -0.1758
 3621SOL    HW112304   4.106   6.686   5.648 -0.3542 -0.2691  0.0289
 3621SOL    HW212305   4.127   6.598   5.769  3.5259 -0.9310 -0.9654
 3622SOL     OW12306   6.880   6.498   4.830  0.1175 -0.1943  0.2530
 3622SOL    HW112307   6.849   6.408   4.832  0.7201 -0.3956  1.2443
 3622SOL    HW212308   6.976   6.490   4.829  0.2302  0.4148  2.1342
 3623SOL     OW12309   2.658   7.659   2.707  0.0572 -0.1191 -0.2457
 3623SOL    HW112310   2.578   7.677   2.756 -0.1966 -0.1674 -0.6383
 3623SOL    HW212311   2.728   7.699   2.760 -0.1778 -0.3977  0.2853
 3624SOL     OW12312   7.786   7.585   2.340 -0.0443 -0.3861  0.5085
 3624SOL    HW112313   7.846   7.609   2.411  0.4471  1.4010 -0.4381
 3624SOL    HW212314   7.740   7.507   2.372  1.8329 -1.0353  1.8030
 3625SOL     OW12315   2.989   7.518   7.937  0.7092  0.4964  0.7528
 3625SOL    HW112316   2.957   7.606   7.916 -1.9165 -0.8013 -1.3753
 3625SOL    HW212317   3.033   7.489   7.857  0.6207 -0.4883  1.0477
 3626SOL     OW12318   5.713   3.250   3.708 -0.0916  0.0921  0.3651
 3626SOL    HW112319   5.792   3.301   3.724 -0.5161  0.9749 -0.2924
 3626SOL    HW212320   5.643   3.298   3.752 -0.2300 -0.8732  1.2523
 3627SOL     OW12321   3.523   6.875   5.251 -0.7442 -0.2835 -0.1517
 3627SOL    HW112322   3.552   6.785   5.269  0.8953  0.1953 -0.2633
 3627SOL    HW212323   3.477   6.901   5.331  1.0993 -0.3231  0.9862
 3628SOL     OW12324   2.304   4.430   0.719  0.4085 -0.0204  0.1813
 3628SOL    HW112325   2.338   4.381   0.644 -0.6300 -1.8842  0.8862
 3628SOL    HW212326   2.383   4.468   0.760  1.2618 -1.2213 -0.2996
 3629SOL     OW12327   0.411   3.598   1.577 -0.0065 -0.9168  0.1640
 3629SOL    HW112328   0.393   3.623   1.668 -2.0143  0.5025 -0.5531
 3629SOL    HW212329   0.458   3.515   1.583 -0.1089 -0.8600  2.4868
 3630SOL     OW12330   0.529   4.420   8.737  0.1524 -0.2473 -0.2079
 3630SOL    HW112331   0.552   4.330   8.712  4.2325  0.0324  1.6166
 3630SOL    HW212332   0.514   4.415   8.832 -0.3220  0.8505 -0.2136
 3631SOL     OW12333   6.315   1.179   3.690 -0.0930  0.2033  0.7888
 3631SOL    HW112334   6.234   1.127   3.691  0.2801 -0.4011  0.2874
 3631SOL    HW212335   6.384   1.114   3.681  0.3621  0.8183 -0.2465
 3632SOL     OW12336   7.641   4.014   7.020 -0.2842 -0.2110  0.1802
 3632SOL    HW112337   7.664   4.069   7.095  0.3538 -0.8437  0.4570
 3632SOL    HW212338   7.667   4.065   6.944 -1.1450  0.5370  0.3582
 3633SOL     OW12339   3.310   0.961   8.716  0.5106  0.5245 -0.2531
 3633SOL    HW112340   3.375   0.895   8.694 -0.0319  0.4566 -1.7796
 3633SOL    HW212341   3.231   0.934   8.670 -0.9401  0.0912  2.2912
 3634SOL     OW12342   1.867   2.662  12.394 -0.4448 -0.3660  0.3299
 3634SOL    HW112343   1.833   2.653  12.304 -0.8422  2.1206  0.1664
 3634SOL    HW212344   1.958   2.688  12.383 -0.5704  0.2120  0.6332
 3635SOL     OW12345   5.927   1.317   1.947  0.1686  0.3697 -0.0374
 3635SOL    HW112346   5.855   1.280   1.896 -0.7897  1.8603  0.1814
 3635SOL    HW212347   5.910   1.288   2.037 -1.1471  2.0626  0.3112
 3636SOL     OW12348   3.054   5.304  10.174  0.1086  0.2516 -0.1298
 3636SOL    HW112349   2.968   5.267  10.196  0.7378 -1.1979  0.0282
 3636SOL    HW212350   3.094   5.322  10.259 -0.5137  2.1646 -0.2034
 3637SOL     OW12351   3.083   7.512   0.700 -0.5892  0.5570 -0.1626
 3637SOL    HW112352   3.100   7.419   0.711 -0.5878  0.5495 -0.2246
 3637SOL    HW212353   3.049   7.520   0.611 -0.3225  0.6500 -0.2608
 3638SOL     OW12354   4.765   2.907   4.215  0.0435 -0.3998 -0.0750
 3638SOL    HW112355   4.700   2.848   4.253 -0.2970 -0.1453 -0.2558
 3638SOL    HW212356   4.848   2.860   4.224  0.4950  0.8506  3.7196
 3639SOL     OW12357   2.401   3.393   2.131 -0.8085 -0.0729 -0.0262
 3639SOL    HW112358   2.399   3.484   2.102 -0.2848  0.0196  0.2331
 3639SOL    HW212359   2.494   3.373   2.142 -0.9522 -0.4636  0.4774
 3640SOL     OW12360   6.142   6.397   4.753  0.5621 -0.0488 -0.1952
 3640SOL    HW112361   6.189   6.314   4.763 -0.3234 -0.4539  0.8278
 3640SOL    HW212362   6.052   6.371   4.733  0.2290  0.6479  0.3626
 3641SOL     OW12363   7.528   2.582   5.783  0.4294  0.2609  0.5474
 3641SOL    HW112364   7.584   2.649   5.744 -1.1511  2.0109  1.1368
 3641SOL    HW212365   7.494   2.533   5.708 -0.0831  1.5277 -0.0817
 3642SOL     OW12366   5.399   5.756   1.739 -0.1809  0.2672 -0.2494
 3642SOL    HW112367   5.354   5.839   1.724 -1.1448  0.3481  2.5943
 3642SOL    HW212368   5.352   5.693   1.685 -1.3158  1.0626 -0.2281
 3643SOL     OW12369   0.541   5.093   7.674 -0.0737  0.5070  0.6270
 3643SOL    HW112370   0.613   5.037   7.644 -0.6653  0.6363 -1.1415
 3643SOL    HW212371   0.584   5.174   7.702  0.4550  0.7924 -0.9359
 3644SOL     OW12372   7.143   5.124   6.545  0.8039  0.3361  0.0941
 3644SOL    HW112373   7.156   5.083   6.630 -0.0452  0.3866  0.2566
 3644SOL    HW212374   7.166   5.055   6.481  2.8421  0.7399  0.3243
 3645SOL     OW12375   0.297   5.797   7.627 -0.2444  0.1301  0.6227
 3645SOL    HW112376   0.328   5.745   7.553 -0.2401 -1.0774  1.4511
 3645SOL    HW212377   0.202   5.799   7.616 -0.2681 -0.2949  0.7434
 3646SOL     OW12378   6.621   5.410   9.737  0.3662  0.2436  0.6557
 3646SOL    HW112379   6.610   5.320   9.769  0.4853 -0.2659 -0.7084
 3646SOL    HW212380   6.595   5.407   9.645  0.9261  1.4891  0.4362
 3647SOL     OW12381   6.691   0.702   4.843  0.1511  0.8458  0.7388
 3647SOL    HW112382   6.600   0.713   4.872  0.6988  0.3524  2.7859
 3647SOL    HW212383   6.733   0.784   4.868  0.2773  1.1065 -0.2855
 3648SOL     OW12384   7.247   2.691   9.794  0.3918  0.1523 -0.3432
 3648SOL    HW112385   7.195   2.767   9.766  0.8942  0.5407 -0.2355
 3648SOL    HW212386   7.278   2.651   9.713 -0.1104 -0.1153 -0.4121
 3649SOL     OW12387   6.107   2.713   6.791  0.3867  0.3961 -0.5300
 3649SOL    HW112388   6.179   2.776   6.787 -0.1965  1.0311 -1.5020
 3649SOL    HW212389   6.029   2.765   6.774 -0.1937 -0.4781 -0.6199
 3650SOL     OW12390   5.600   6.128  12.431  0.7236 -0.1688  0.0671
 3650SOL    HW112391   5.570   6.038  12.444  1.9697 -0.9189 -1.8846
 3650SOL    HW212392   5.541   6.180  12.485  0.5208 -2.2100  1.9819
 3651SOL     OW12393   7.148   5.945   5.433 -0.3887  0.4239  0.3760
 3651SOL    HW112394   7.200   5.962   5.512  0.1570  1.1543 -0.1270
 3651SOL    HW212395   7.178   6.010   5.370  0.0221 -0.9088 -0.8516
 3652SOL     OW12396   2.060   3.511   2.963 -0.0378 -0.4876 -0.4779
 3652SOL    HW112397   2.138   3.556   2.933 -1.3981 -0.2274 -4.1168
 3652SOL    HW212398   1.987   3.560   2.924 -1.8819 -2.2233  0.5828
 3653SOL     OW12399   3.425   7.371  10.586 -0.0912  0.6805  0.3153
 3653SOL    HW112400   3.428   7.462  10.554 -1.7775  1.9476  3.3235
 3653SOL    HW212401   3.341   7.338  10.554  0.6259  0.0286 -0.9765
 3654SOL     OW12402   0.464   0.750   3.388  0.4118  0.4202  0.1747
 3654SOL    HW112403   0.509   0.834   3.386  0.8641  0.2040 -2.8270
 3654SOL    HW212404   0.395   0.758   3.323  0.0444 -1.3124  0.3076
 3655SOL     OW12405   4.506   7.274   5.474  0.3184  0.5141 -0.1501
 3655SOL    HW112406   4.477   7.198   5.424  0.5487 -1.1713  2.1117
 3655SOL    HW212407   4.425   7.320   5.497  0.0717  0.2313 -0.4494
 3656SOL     OW12408   6.967   3.842   8.041 -0.0609 -0.4404  0.2558
 3656SOL    HW112409   7.036   3.846   8.106  1.0766 -0.8585 -0.8984
 3656SOL    HW212410   6.888   3.869   8.089  1.0521  1.0348  1.3399
 3657SOL     OW12411   7.070   3.688   3.803  0.1066  0.3378  0.0610
 3657SOL    HW112412   7.119   3.692   3.885  1.3211  0.7654 -0.6548
 3657SOL    HW212413   7.105   3.761   3.751 -0.1561 -0.3351 -1.0931
 3658SOL     OW12414   2.370   0.773  11.523  0.1935 -0.0281  0.4140
 3658SOL    HW112415   2.325   0.776  11.439  2.4269  2.3437 -0.8144
 3658SOL    HW212416   2.419   0.691  11.522 -1.0830 -0.8170  0.1822
 3659SOL     OW12417   1.449   3.211   4.150 -0.2164 -0.1174 -0.1964
 3659SOL    HW112418   1.504   3.168   4.085 -0.9163  1.0549 -1.6048
 3659SOL    HW212419   1.360   3.180   4.131 -0.3242 -0.4542  0.7923
 3660SOL     OW12420   6.706   7.197  11.789 -0.4969  0.2124 -0.0742
 3660SOL    HW112421   6.682   7.160  11.704 -2.0129  1.3208 -0.1699
 3660SOL    HW212422   6.627   7.187  11.843  0.0896  0.4978  0.8620
 3661SOL     OW12423   2.064   5.130   3.099  0.0321  0.3041  0.7126
 3661SOL    HW112424   2.117   5.162   3.172  0.8789 -0.1659  0.3301
 3661SOL    HW212425   2.087   5.037   3.092  1.2179  0.6878 -1.1574
 3662SOL     OW12426   4.740   3.718   7.824  0.3511 -0.1712  0.4838
 3662SOL    HW112427   4.779   3.636   7.793  0.4516  0.1390 -0.2125
 3662SOL    HW212428   4.815   3.774   7.842  0.2545  0.6624 -1.4902
 3663SOL     OW12429   0.539   4.827   8.144  0.0438  0.4166 -0.0031
 3663SOL    HW112430   0.479   4.847   8.072  0.9622  2.4387 -0.2983
 3663SOL    HW212431   0.544   4.732   8.146 -1.2928  0.2693 -1.5297
 3664SOL     OW12432   1.446   7.537   0.028 -0.2067  0.1953 -0.9532
 3664SOL    HW112433   1.480   7.495   0.107 -3.4090 -1.0158 -0.0721
 3664SOL    HW212434   1.493   7.621   0.024  2.1532 -0.9330  0.5186
 3665SOL     OW12435   3.890   5.683  10.423  0.3766 -0.2404  0.4271
 3665SOL    HW112436   3.882   5.639  10.338 -0.2794 -3.1518  1.8498
 3665SOL    HW212437   3.984   5.686  10.441  0.4943  0.0545 -0.2326
 3666SOL     OW12438   4.618   6.413  10.026  0.1505  0.6007  0.4461
 3666SOL    HW112439   4.604   6.456   9.941 -0.6992  0.4348  0.4913
 3666SOL    HW212440   4.645   6.485  10.084  1.1375  0.6475 -0.0450
 3667SOL     OW12441   6.774   1.243   1.054  0.2042  0.1232  0.0361
 3667SOL    HW112442   6.720   1.226   0.977  0.0050 -0.6748  0.3427
 3667SOL    HW212443   6.751   1.332   1.081  1.7372  1.2217 -1.9954
 3668SOL     OW12444   0.503   4.303   4.884  0.0751  0.2758  0.8202
 3668SOL    HW112445   0.573   4.309   4.948  0.9025  2.0175 -0.1720
 3668SOL    HW212446   0.468   4.392   4.878 -0.0428  0.1414 -1.0367
 3669SOL     OW12447   5.067   2.296   9.293 -0.0185  0.1161  0.2163
 3669SOL    HW112448   4.974   2.292   9.268  0.4599 -1.1690 -1.5738
 3669SOL    HW212449   5.087   2.389   9.295 -0.9939  0.3834 -0.9034
 3670SOL     OW12450   0.484   4.677  11.408  0.1137  0.3140  0.5462
 3670SOL    HW112451   0.458   4.648  11.495 -0.8811 -2.1057 -0.4541
 3670SOL    HW212452   0.437   4.618  11.348  0.2655  2.2791 -1.6567
 3671SOL     OW12453   6.744   6.295  10.278 -0.3689 -0.2641 -0.5240
 3671SOL    HW112454   6.822   6.282  10.332 -0.1738 -2.0779 -1.1629
 3671SOL    HW212455   6.757   6.380  10.236 -0.2487  0.9149  1.7730
 3672SOL     OW12456   1.029   5.197   1.270 -0.4103  0.0349  0.3279
 3672SOL    HW112457   1.107   5.253   1.264 -0.6287  0.6420  2.3246
 3672SOL    HW212458   1.064   5.110   1.286 -0.1155  0.0852 -0.0234
 3673SOL     OW12459   2.362   3.166   3.928  0.4071  0.0889  0.1825
 3673SOL    HW112460   2.291   3.175   3.865 -1.1864  1.1777  2.0154
 3673SOL    HW212461   2.413   3.247   3.920  0.9618 -0.3193 -0.5353
 3674SOL     OW12462   2.333   5.375   2.711 -0.3736  0.3723  0.4308
 3674SOL    HW112463   2.419   5.390   2.750  0.3138  0.3214 -0.9945
 3674SOL    HW212464   2.279   5.445   2.745  0.2638  0.4923  1.2382
 3675SOL     OW12465   3.985   0.208  10.546 -0.3436  0.3234 -0.1307
 3675SOL    HW112466   3.910   0.167  10.503 -0.1813 -0.1020 -0.0162
 3675SOL    HW212467   3.946   0.259  10.617 -0.6158  1.0737 -0.8049
 3676SOL     OW12468   1.984   3.136   7.462  0.3008 -0.1633  0.0999
 3676SOL    HW112469   1.979   3.213   7.406  1.4141 -0.6438 -0.7144
 3676SOL    HW212470   1.968   3.169   7.550  1.9228  1.2448 -0.0651
 3677SOL     OW12471   1.252   5.833   9.633 -0.4748 -0.0006  0.2835
 3677SOL    HW112472   1.275   5.922   9.605  1.2135  0.2521  2.2564
 3677SOL    HW212473   1.318   5.777   9.592 -1.1778 -0.2987 -0.4679
 3678SOL     OW12474   5.116   3.273  10.292  1.0545  0.1189 -0.0259
 3678SOL    HW112475   5.033   3.293  10.248  0.2827 -1.2941  0.7143
 3678SOL    HW212476   5.173   3.242  10.223  1.1307  1.4676 -0.6097
 3679SOL     OW12477   1.654   6.556   5.436 -0.1124 -0.2098 -0.0142
 3679SOL    HW112478   1.662   6.546   5.341  0.1315  0.6546 -0.0987
 3679SOL    HW212479   1.722   6.620   5.459 -1.0520  0.6268  0.5342
 3680SOL     OW12480   5.494   4.375   3.233 -0.3342  0.5628 -0.4353
 3680SOL    HW112481   5.489   4.305   3.298 -0.8636  0.2830 -0.7721
 3680SOL    HW212482   5.405   4.407   3.224  0.0480  1.9537  0.4149
 3681SOL     OW12483   7.638   0.973   0.004 -0.8080  0.1645 -0.3784
 3681SOL    HW112484   7.550   0.987  -0.031 -0.6704  1.4364 -0.2919
 3681SOL    HW212485   7.636   1.013   0.091 -0.0651  0.5057 -0.5017
 3682SOL     OW12486   6.683   4.399  11.150 -0.6165  0.1697  0.3638
 3682SOL    HW112487   6.691   4.323  11.092 -0.2321 -0.3304  1.0620
 3682SOL    HW212488   6.702   4.474  11.093 -1.1878 -0.2282 -0.3759
 3683SOL     OW12489   2.010   4.890   2.168  0.0760 -0.1224  0.3193
 3683SOL    HW112490   1.976   4.970   2.209  0.3449  1.2215 -1.9176
 3683SOL    HW212491   1.953   4.876   2.093  0.9426 -1.1966 -0.1592
 3684SOL     OW12492   6.464   3.053   5.127  0.1283  0.1602 -0.0817
 3684SOL    HW112493   6.371   3.071   5.141 -0.0451  0.6891 -1.6880
 3684SOL    HW212494   6.468   3.012   5.040  1.2794 -0.9773  0.4842
 3685SOL     OW12495   7.232   1.655   3.051  0.2196 -0.2499 -0.0544
 3685SOL    HW112496   7.261   1.746   3.051 -0.7616  0.0754  0.4913
 3685SOL    HW212497   7.137   1.660   3.043  0.2009 -1.2458 -0.5187
 3686SOL     OW12498   2.266   1.414   9.228  0.3287 -0.7988  0.5138
 3686SOL    HW112499   2.361   1.408   9.238  0.8121  3.9737  1.2070
 3686SOL    HW212500   2.233   1.431   9.316 -1.2726 -2.6306  0.3254
 3687SOL     OW12501   3.190   1.218   4.158  0.4044  0.2867  0.4276
 3687SOL    HW112502   3.139   1.222   4.077 -1.8033  0.0041  1.7158
 3687SOL    HW212503   3.222   1.128   4.162 -1.8523 -0.5554  1.1493
 3688SOL     OW12504   4.771   2.608   3.027  0.2400  0.1353  0.4963
 3688SOL    HW112505   4.740   2.644   2.944  1.8999  0.8764  0.1523
 3688SOL    HW212506   4.745   2.516   3.025  0.8357 -0.0293 -1.1610
 3689SOL     OW12507   1.290   3.608   4.106  0.1062 -0.0512 -0.3759
 3689SOL    HW112508   1.336   3.559   4.038  1.5239 -0.1410  0.6066
 3689SOL    HW212509   1.359   3.651   4.156 -0.9479  0.6492  0.5315
 3690SOL     OW12510   3.462   1.137  12.214  0.0426 -0.3109  0.1606
 3690SOL    HW112511   3.455   1.044  12.236  0.8454 -0.8462 -1.6659
 3690SOL    HW212512   3.475   1.138  12.119 -2.6097  1.7991 -0.2890
 3691SOL     OW12513   6.289   7.804  12.331 -0.3777  0.7813  0.1073
 3691SOL    HW112514   6.246   7.759  12.258 -0.0927 -0.6535  0.7685
 3691SOL    HW212515   6.281   7.897  12.311 -1.8086  0.4815 -0.8898
 3692SOL     OW12516   5.586   7.810  10.199  0.3264  0.4909 -0.2179
 3692SOL    HW112517   5.635   7.742  10.245  0.5833  0.6158 -0.3070
 3692SOL    HW212518   5.529   7.848  10.267  0.2363  0.2396 -0.1518
 3693SOL     OW12519   5.607   7.533   7.130 -0.1327  0.1811 -0.0223
 3693SOL    HW112520   5.558   7.469   7.182  1.2662 -1.0428 -0.1595
 3693SOL    HW212521   5.548   7.555   7.058  0.2064 -2.8759 -1.3959
 3694SOL     OW12522   5.787   4.776   3.619  0.4055 -0.3691 -0.2289
 3694SOL    HW112523   5.776   4.861   3.575 -2.0845 -1.1187 -1.2623
 3694SOL    HW212524   5.768   4.712   3.550 -1.4334 -1.6463  1.3515
 3695SOL     OW12525   6.895   5.482   6.286 -0.4079  0.1844 -0.4936
 3695SOL    HW112526   6.865   5.504   6.374  2.8990  1.1627  0.5258
 3695SOL    HW212527   6.853   5.546   6.229  0.0780  1.8069  0.8983
 3696SOL     OW12528   3.746   6.913  10.677 -0.1222  0.0287  0.3276
 3696SOL    HW112529   3.826   6.900  10.625 -0.0526 -1.2538  0.7219
 3696SOL    HW212530   3.693   6.973  10.625  1.0059  0.7470 -0.0358
 3697SOL     OW12531   2.331   4.921   2.630  0.0097  0.1046  0.3603
 3697SOL    HW112532   2.265   4.859   2.598  0.6707  0.2785 -1.4471
 3697SOL    HW212533   2.298   5.007   2.605 -0.3051  0.4258  1.7711
 3698SOL     OW12534   6.181   3.960  10.356 -0.1784 -0.3443  0.0439
 3698SOL    HW112535   6.219   3.889  10.408  1.0459 -0.2172 -0.6398
 3698SOL    HW212536   6.257   4.008  10.322 -0.9823  0.7890 -0.1951
 3699SOL     OW12537   0.143   7.464  11.670 -0.5164  0.2833  0.1304
 3699SOL    HW112538   0.137   7.370  11.688  0.4143  0.0476 -0.6879
 3699SOL    HW212539   0.063   7.484  11.620 -0.5773 -0.1308  0.0569
 3700SOL     OW12540   6.554   6.755  11.738  0.2101 -0.0596  0.0866
 3700SOL    HW112541   6.552   6.660  11.733  0.3312 -0.0546 -0.0687
 3700SOL    HW212542   6.466   6.780  11.766 -0.2616 -0.1264 -1.2636
 3701SOL     OW12543   4.306   2.711   2.229  0.0798 -0.6732 -0.0974
 3701SOL    HW112544   4.335   2.686   2.316  1.6246 -2.3499 -1.0339
 3701SOL    HW212545   4.367   2.780   2.201 -0.7041  0.2030  0.2946
 3702SOL     OW12546   2.899   2.833  10.829  0.4517  0.2754  0.0878
 3702SOL    HW112547   2.891   2.742  10.803  1.1708 -0.0540  0.9657
 3702SOL    HW212548   2.982   2.862  10.790  0.2120  0.5676 -0.2128
 3703SOL     OW12549   6.131   3.033   0.614  0.1952 -0.1611 -0.0198
 3703SOL    HW112550   6.106   3.104   0.555 -1.6983 -1.1821 -0.5316
 3703SOL    HW212551   6.162   2.963   0.557  0.0363 -0.5111  0.3114
 3704SOL     OW12552   0.689   7.543  12.325 -0.0616 -0.4773 -0.1130
 3704SOL    HW112553   0.773   7.586  12.307  0.7267 -1.2780  1.4595
 3704SOL    HW212554   0.657   7.585  12.405  0.6543 -2.5935  1.3742
 3705SOL     OW12555   2.205   4.848   0.579  0.4083  0.2474 -0.0394
 3705SOL    HW112556   2.136   4.902   0.617 -0.8489 -0.7490 -0.8419
 3705SOL    HW212557   2.183   4.759   0.605  1.9390 -0.0216  0.4768
 3706SOL     OW12558   0.479   7.762   6.072 -0.0037 -0.1891  0.3195
 3706SOL    HW112559   0.559   7.785   6.120  0.2293  0.4834 -0.3851
 3706SOL    HW212560   0.470   7.829   6.005 -0.4986 -0.9453 -0.3944
 3707SOL     OW12561   4.226   6.050   1.914  0.7571  0.3098  0.3884
 3707SOL    HW112562   4.285   6.109   1.867 -0.0096  1.4615  0.8353
 3707SOL    HW212563   4.138   6.077   1.887  0.3930 -0.7537  0.4639
 3708SOL     OW12564   2.205   0.029  11.624  0.4429  0.0096  0.1999
 3708SOL    HW112565   2.142  -0.014  11.567 -1.3009  1.1311  1.1954
 3708SOL    HW212566   2.193  -0.013  11.710  0.0255  1.1806  0.7369
 3709SOL     OW12567   1.866   5.038   5.480 -0.2679  0.0254  0.4156
 3709SOL    HW112568   1.885   5.085   5.561  0.3393  0.0055  0.2894
 3709SOL    HW212569   1.932   5.069   5.418 -0.0969 -0.7063  0.2200
 3710SOL     OW12570   4.313   6.989   8.247 -0.2226  0.2578  0.0256
 3710SOL    HW112571   4.333   6.975   8.340 -0.7641  0.4018  0.1626
 3710SOL    HW212572   4.229   7.034   8.247 -0.0712  0.5477 -0.5268
 3711SOL     OW12573   2.207   1.411   6.317  0.3273  0.2160 -1.0283
 3711SOL    HW112574   2.126   1.402   6.369  1.0481  1.1038  0.3207
 3711SOL    HW212575   2.176   1.431   6.229 -0.9916 -2.9115 -1.4177
 3712SOL     OW12576   3.713   7.532   9.570 -0.0588  0.2195  0.2410
 3712SOL    HW112577   3.786   7.530   9.507 -0.0376 -1.3335  0.2630
 3712SOL    HW212578   3.653   7.598   9.535  0.7855  0.6520 -0.4423
 3713SOL     OW12579   5.652   4.260   6.810  0.5021 -0.2327 -0.6112
 3713SOL    HW112580   5.591   4.254   6.736 -1.6070  0.7353  0.9432
 3713SOL    HW212581   5.707   4.336   6.790  0.7765 -0.7157 -1.7385
 3714SOL     OW12582   0.969   7.841  11.684  0.0940 -0.4740  0.2206
 3714SOL    HW112583   0.968   7.752  11.719 -0.7333 -0.1870  0.9612
 3714SOL    HW212584   1.016   7.892  11.751 -0.0747 -0.2226  0.1477
 3715SOL     OW12585   0.862   0.933   1.891 -0.3251 -0.5721 -0.5329
 3715SOL    HW112586   0.924   0.896   1.829  1.4224 -1.0455  1.3968
 3715SOL    HW212587   0.831   0.859   1.942  1.7640  0.2105  2.1102
 3716SOL     OW12588   0.061   6.021  11.301  0.4351 -0.5769 -0.2765
 3716SOL    HW112589   0.144   5.974  11.307 -0.7425 -2.8339 -0.1623
 3716SOL    HW212590   0.017   6.002  11.385 -0.7268 -0.5856 -0.8632
 3717SOL     OW12591   4.456   1.875  12.355  0.4036  0.7335  0.3682
 3717SOL    HW112592   4.450   1.905  12.265 -1.6444  0.8025  0.4692
 3717SOL    HW212593   4.539   1.828  12.360  0.0138 -0.3232 -1.8763
 3718SOL     OW12594   2.142   0.574   2.780 -0.3837  0.0536 -0.0580
 3718SOL    HW112595   2.134   0.629   2.702  1.1798  0.4401  0.0246
 3718SOL    HW212596   2.153   0.635   2.853  0.3336 -0.3370  0.1719
 3719SOL     OW12597   1.557   0.181   1.230  0.3945 -0.4870  0.1287
 3719SOL    HW112598   1.537   0.109   1.290  2.2981 -1.0572  0.1546
 3719SOL    HW212599   1.628   0.148   1.175  0.2142  0.8140 -0.9412
 3720SOL     OW12600   3.732   6.102  11.593  0.8211 -0.2381 -0.3716
 3720SOL    HW112601   3.667   6.068  11.532 -1.0306  0.0091  1.3836
 3720SOL    HW212602   3.810   6.117  11.539 -0.2227 -1.5275 -2.3320
 3721SOL     OW12603   0.454   1.712   7.136 -0.2033 -0.5530  0.4340
 3721SOL    HW112604   0.401   1.769   7.191 -1.3261 -0.9578 -0.2027
 3721SOL    HW212605   0.398   1.637   7.118  0.4143 -0.7696 -0.6440
 3722SOL     OW12606   4.082   4.165  10.560 -0.4160 -0.1542  0.1388
 3722SOL    HW112607   4.106   4.222  10.487  1.1409 -0.6102  0.2483
 3722SOL    HW212608   3.987   4.162  10.558 -0.4483 -1.4791 -2.9278
 3723SOL     OW12609   5.618   0.316   8.330  0.5998  0.6809  0.1220
 3723SOL    HW112610   5.699   0.336   8.284  1.2718 -2.4985 -0.3602
 3723SOL    HW212611   5.632   0.346   8.420  1.8635  1.1992 -0.2417
 3724SOL     OW12612   7.525   0.529   5.674  0.1380  0.1819 -0.2243
 3724SOL    HW112613   7.432   0.548   5.662  0.1011 -0.3114 -0.7315
 3724SOL    HW212614   7.570   0.599   5.626  0.0378  0.5730  0.2421
 3725SOL     OW12615   5.655   1.120  11.138 -0.6962 -0.4300  0.2085
 3725SOL    HW112616   5.740   1.078  11.129 -0.1592  1.1026 -4.0229
 3725SOL    HW212617   5.592   1.054  11.109 -0.8348 -0.9621  1.6290
 3726SOL     OW12618   4.935   7.101  11.812  0.5387  0.2075  0.3179
 3726SOL    HW112619   4.998   7.094  11.884  0.1270 -2.4931  0.5410
 3726SOL    HW212620   4.917   7.010  11.788 -3.5769  0.8180  0.5286
 3727SOL     OW12621   2.868   3.583   0.234 -0.1234  0.0343  0.5530
 3727SOL    HW112622   2.830   3.644   0.171  0.8068  0.6435  0.5698
 3727SOL    HW212623   2.797   3.566   0.297 -2.2441 -3.0680 -2.2611
 3728SOL     OW12624   1.129   7.785  10.564 -0.0214 -0.4314 -0.8548
 3728SOL    HW112625   1.083   7.868  10.571 -0.0417 -0.4099 -1.2525
 3728SOL    HW212626   1.067   7.726  10.521  0.0993 -0.5713 -0.8379
 3729SOL     OW12627   3.743   2.181  12.125 -0.8326 -0.1623 -0.0777
 3729SOL    HW112628   3.695   2.158  12.204 -0.6574  1.3870  0.5284
 3729SOL    HW212629   3.759   2.275  12.134  3.0908 -0.7102  0.2104
 3730SOL     OW12630   4.556   0.054   6.133 -0.3042  0.0681 -0.1682
 3730SOL    HW112631   4.496   0.061   6.208 -0.6576  0.6390 -0.4985
 3730SOL    HW212632   4.501   0.023   6.061 -0.6165  2.1995 -0.9217
 3731SOL     OW12633   6.664   1.941   0.442  0.8126  0.3189 -0.3213
 3731SOL    HW112634   6.749   1.897   0.453  0.7639  0.7081  2.4842
 3731SOL    HW212635   6.605   1.893   0.500  0.2743  2.7601  1.3081
 3732SOL     OW12636   6.715   6.726   0.218 -0.3059 -0.1876 -0.6105
 3732SOL    HW112637   6.740   6.818   0.223 -0.1759 -0.1975 -1.1002
 3732SOL    HW212638   6.671   6.709   0.302 -1.9087  0.7841 -1.2075
 3733SOL     OW12639   6.614   0.195   8.045  0.2975 -0.1895 -0.1558
 3733SOL    HW112640   6.582   0.215   7.957  2.1021 -1.2727 -1.1106
 3733SOL    HW212641   6.696   0.243   8.052 -0.0333  0.2192  1.1169
 3734SOL     OW12642   3.290   7.539   3.222 -0.3239 -0.0088  0.4069
 3734SOL    HW112643   3.287   7.456   3.174 -0.6118  0.4580 -0.3902
 3734SOL    HW212644   3.307   7.605   3.156 -0.9954  0.6814  0.9090
 3735SOL     OW12645   1.787   6.215  10.502 -0.1218 -0.6378  0.4686
 3735SOL    HW112646   1.761   6.303  10.528 -0.6298 -0.2375 -1.2952
 3735SOL    HW212647   1.871   6.201  10.545  0.2154  0.9007  0.3638
 3736SOL     OW12648   6.535   1.364   5.257 -0.0154  0.2964  0.0786
 3736SOL    HW112649   6.557   1.412   5.337  0.5113 -0.6361  0.5091
 3736SOL    HW212650   6.619   1.333   5.224 -0.2722  0.3110 -0.6245
 3737SOL     OW12651   0.897   6.684   5.789 -0.4882  0.6545 -0.1900
 3737SOL    HW112652   0.874   6.728   5.871 -0.6338 -1.4087  0.9498
 3737SOL    HW212653   0.991   6.700   5.779 -0.2174 -0.0003  1.0341
 3738SOL     OW12654   6.779   7.255   2.924  0.2702 -0.0441 -0.5679
 3738SOL    HW112655   6.834   7.215   2.991 -0.2638  0.1204 -0.0276
 3738SOL    HW212656   6.756   7.341   2.959 -1.7209 -0.7534  0.0012
 3739SOL     OW12657   4.486   3.815   0.742 -0.6900 -0.2157 -0.8101
 3739SOL    HW112658   4.579   3.830   0.763 -0.4181 -0.6194 -1.6800
 3739SOL    HW212659   4.457   3.897   0.703 -0.6510 -0.1460 -0.6933
 3740SOL     OW12660   0.083   5.237   5.771 -0.1044 -0.0811 -0.3990
 3740SOL    HW112661   0.060   5.255   5.863 -0.3747 -1.0612 -0.2610
 3740SOL    HW212662   0.141   5.161   5.776  0.6082  0.4237 -0.9830
 3741SOL     OW12663   7.658   5.470   9.300  0.1936 -0.6200  0.2170
 3741SOL    HW112664   7.696   5.429   9.223  0.1808  0.5795 -0.4521
 3741SOL    HW212665   7.732   5.511   9.345 -0.1570  1.1762 -0.7513
 3742SOL     OW12666   0.781   1.050   7.400 -0.2865  0.1336 -0.0616
 3742SOL    HW112667   0.828   0.983   7.450 -1.1932 -0.3840  0.1164
 3742SOL    HW212668   0.821   1.049   7.314 -0.7795 -1.1846 -0.2975
 3743SOL     OW12669   3.679   2.491   8.116  0.5597 -0.6776  0.5929
 3743SOL    HW112670   3.602   2.463   8.067  0.8193 -1.3620  0.5648
 3743SOL    HW212671   3.731   2.412   8.127  0.0741 -0.7601  2.7966
 3744SOL     OW12672   7.737   3.730   7.262  0.4644  0.3521  0.1329
 3744SOL    HW112673   7.787   3.808   7.287 -2.1118  2.6825 -1.3530
 3744SOL    HW212674   7.712   3.689   7.345  0.0075  2.4503  1.0952
 3745SOL     OW12675   0.223   3.970   8.658 -0.4020  0.2533  0.3924
 3745SOL    HW112676   0.305   4.019   8.646 -0.6120  0.7024  0.7367
 3745SOL    HW212677   0.241   3.883   8.623 -0.2236  0.7700 -0.8730
 3746SOL     OW12678   1.982   3.677   0.512 -0.7875  0.4237 -0.2681
 3746SOL    HW112679   2.055   3.738   0.522 -0.9581  0.2858  2.4161
 3746SOL    HW212680   2.023   3.597   0.480 -0.3690  1.4470 -2.4947
 3747SOL     OW12681   6.683   1.981   8.574 -0.0154 -0.2054 -0.3605
 3747SOL    HW112682   6.662   2.071   8.599 -2.2958 -0.7880 -0.0292
 3747SOL    HW212683   6.660   1.977   8.481  1.7314 -0.0235 -0.8487
 3748SOL     OW12684   3.527   7.138  11.620 -0.0957  0.3274  0.8076
 3748SOL    HW112685   3.582   7.124  11.696 -0.6499 -1.4521  0.9328
 3748SOL    HW212686   3.450   7.185  11.653 -0.6320 -0.9937  1.5087
 3749SOL     OW12687   1.095   7.241   3.948  0.7245 -0.4128 -0.1938
 3749SOL    HW112688   1.089   7.176   3.878 -2.4693 -1.5471  0.9234
 3749SOL    HW212689   1.069   7.323   3.908  1.0746 -0.5973 -0.8046
 3750SOL     OW12690   0.613   1.292   5.955  0.4308  0.3067 -0.0651
 3750SOL    HW112691   0.666   1.277   6.033  0.3506 -1.6831 -0.3309
 3750SOL    HW212692   0.670   1.269   5.882 -0.7136 -1.9901 -0.3504
 3751SOL     OW12693   2.702   1.042   8.463 -0.3078  0.7276 -0.2506
 3751SOL    HW112694   2.781   1.002   8.427 -1.0604 -0.7318 -0.3843
 3751SOL    HW212695   2.632   1.012   8.406 -1.1824  0.4949  0.9012
 3752SOL     OW12696   6.939   0.173   7.074  0.1413 -0.3105 -0.2701
 3752SOL    HW112697   6.874   0.105   7.053  0.3817 -0.2528 -1.2102
 3752SOL    HW212698   6.892   0.255   7.061  0.4563 -0.2653 -1.1433
 3753SOL     OW12699   1.525   1.266   5.404  0.3317  0.2584  0.2612
 3753SOL    HW112700   1.445   1.319   5.401 -1.9545 -2.6196  2.8226
 3753SOL    HW212701   1.583   1.314   5.463 -1.6462  0.1213  2.4896
 3754SOL     OW12702   7.537   1.325   5.154 -0.5083 -0.0867  0.2181
 3754SOL    HW112703   7.448   1.324   5.189 -0.2705 -0.0598  0.8271
 3754SOL    HW212704   7.541   1.406   5.103 -0.2597  0.8995  1.7296
 3755SOL     OW12705   0.215   3.639  11.053 -0.4165  0.1071  0.0739
 3755SOL    HW112706   0.248   3.563  11.004 -1.1179 -1.0130  1.2736
 3755SOL    HW212707   0.289   3.667  11.106 -0.1613  0.2675 -0.3583
 3756SOL     OW12708   2.781   1.006   8.163  0.0020  0.0749  0.2967
 3756SOL    HW112709   2.797   1.037   8.074 -1.5819 -2.3488 -0.9205
 3756SOL    HW212710   2.869   0.986   8.196  0.5850  0.6047 -0.8464
 3757SOL     OW12711   3.766   7.588   1.869  0.3680  0.2938 -0.6196
 3757SOL    HW112712   3.817   7.616   1.945 -1.2495  1.2599  0.1730
 3757SOL    HW212713   3.814   7.513   1.834  2.4712  1.3517 -0.1333
 3758SOL     OW12714   3.103   4.349   0.328  0.8878 -0.0908  0.1910
 3758SOL    HW112715   3.017   4.374   0.360  1.1781  1.4122 -0.1227
 3758SOL    HW212716   3.129   4.275   0.383 -0.7579 -0.8270  0.0194
 3759SOL     OW12717   7.472   5.248  10.416  0.4605  0.2305  0.3465
 3759SOL    HW112718   7.549   5.289  10.377  0.3752 -0.4518 -0.5774
 3759SOL    HW212719   7.397   5.292  10.374  0.3630 -1.7512 -1.6936
 3760SOL     OW12720   1.173   2.697  10.480 -0.7657 -0.4174 -0.0803
 3760SOL    HW112721   1.092   2.743  10.502 -0.3883  0.9463 -1.3577
 3760SOL    HW212722   1.213   2.751  10.412  0.9797 -1.3280  0.1745
 3761SOL     OW12723   0.200   6.696   4.155  0.0962  0.1687  0.6925
 3761SOL    HW112724   0.159   6.777   4.124  0.5442  0.1856  0.1379
 3761SOL    HW212725   0.214   6.711   4.248 -1.3188  0.0998  0.9446
 3762SOL     OW12726   7.469   3.717   0.265 -0.6124  0.0619  0.5327
 3762SOL    HW112727   7.378   3.697   0.246 -0.8892  0.1892  1.6146
 3762SOL    HW212728   7.519   3.647   0.224 -1.2231 -0.1850  0.2072
 3763SOL     OW12729   2.413   1.347   3.734  0.6875  0.0125 -0.9863
 3763SOL    HW112730   2.408   1.360   3.639 -1.6333 -0.8272 -1.0412
 3763SOL    HW212731   2.330   1.305   3.757  0.6767  1.2557  1.5988
 3764SOL     OW12732   0.348   6.624  10.485  0.0219 -0.5204 -0.1715
 3764SOL    HW112733   0.323   6.585  10.569 -0.0370  1.0524  0.5626
 3764SOL    HW212734   0.401   6.556  10.443 -0.4624 -1.5750  0.8537
 3765SOL     OW12735   3.657   0.417   4.853  0.5699 -0.4884  0.3865
 3765SOL    HW112736   3.606   0.373   4.785  0.9507 -0.8958  0.3531
 3765SOL    HW212737   3.658   0.509   4.827 -1.5371 -0.1777  1.2861
 3766SOL     OW12738   1.625   0.825  11.863 -0.3295 -0.0237 -0.6342
 3766SOL    HW112739   1.667   0.855  11.783  1.0284  0.6960  0.3050
 3766SOL    HW212740   1.624   0.902  11.920 -3.5183  0.1824 -0.7735
 3767SOL     OW12741   2.422   5.763  12.374  0.2402 -0.1379  0.2726
 3767SOL    HW112742   2.348   5.791  12.428 -0.3723  1.3734 -1.2569
 3767SOL    HW212743   2.499   5.782  12.428 -0.4203 -1.0583  1.5984
 3768SOL     OW12744   1.997   0.167   4.272 -0.2059 -0.3543  0.8741
 3768SOL    HW112745   1.905   0.169   4.245 -0.1898 -1.1111  0.7436
 3768SOL    HW212746   2.003   0.236   4.339 -0.2566  1.4894 -0.9269
 3769SOL     OW12747   2.746   4.685   3.285  0.2609 -0.2655  0.3187
 3769SOL    HW112748   2.757   4.702   3.379 -0.9674 -2.2291  0.8747
 3769SOL    HW212749   2.680   4.749   3.257 -0.6236 -0.7517  1.2097
 3770SOL     OW12750   6.846   1.475   7.844  0.4182 -0.0999  0.4082
 3770SOL    HW112751   6.786   1.522   7.787 -0.0154 -2.4887 -1.2644
 3770SOL    HW212752   6.930   1.474   7.797  0.3054 -1.3114  0.2020
 3771SOL     OW12753   3.084   4.482   0.060  0.3559  0.8883 -0.1933
 3771SOL    HW112754   3.028   4.431   0.001 -0.4379  2.7563 -1.1740
 3771SOL    HW212755   3.099   4.425   0.134 -1.0650 -0.5006 -0.9027
 3772SOL     OW12756   3.431   0.332   4.712  0.6280 -0.3568 -0.1591
 3772SOL    HW112757   3.379   0.357   4.636 -1.5295  0.9353  1.5979
 3772SOL    HW212758   3.403   0.243   4.732 -1.2898  0.4188  0.9337
 3773SOL     OW12759   6.795   4.682  11.049  0.5081 -0.0248  0.0482
 3773SOL    HW112760   6.876   4.658  11.093  0.6064  1.0776  0.5158
 3773SOL    HW212761   6.800   4.778  11.041 -0.6493  0.0389 -0.0859
 3774SOL     OW12762   4.065   0.525   2.770 -0.4163 -0.5540 -0.0562
 3774SOL    HW112763   4.047   0.572   2.689 -0.1427 -1.7639 -0.8414
 3774SOL    HW212764   4.046   0.434   2.750  1.5946 -1.1785  0.6041
 3775SOL     OW12765   3.003   7.518   4.011 -0.0906 -0.2644 -0.3580
 3775SOL    HW112766   2.924   7.468   3.991 -0.0098  0.4229 -2.6823
 3775SOL    HW212767   3.075   7.457   3.995 -0.0861 -0.1865 -0.6504
 3776SOL     OW12768   5.195   3.015   1.835  0.0859 -0.4859 -0.6015
 3776SOL    HW112769   5.242   2.959   1.897  0.8486 -1.0842 -1.6874
 3776SOL    HW212770   5.260   3.078   1.804 -0.6817  0.8376  0.3576
 3777SOL     OW12771   5.232   3.030   9.564 -0.5400  0.5664  0.6255
 3777SOL    HW112772   5.284   2.953   9.587  0.0932  0.5507 -0.7439
 3777SOL    HW212773   5.265   3.099   9.622 -0.9722 -0.1252  1.7170
 3778SOL     OW12774   7.732   1.218   1.435 -0.0662  0.2867 -0.2083
 3778SOL    HW112775   7.707   1.134   1.474 -0.9918  0.0763 -1.1902
 3778SOL    HW212776   7.819   1.202   1.397  0.7508  0.4405  1.5328
 3779SOL     OW12777   7.229   3.982  11.894 -0.4662  0.1926 -0.2484
 3779SOL    HW112778   7.170   3.969  11.820 -1.8023  0.8764  0.6431
 3779SOL    HW212779   7.195   4.061  11.937 -0.3140 -0.7242  1.6240
 3780SOL     OW12780   3.247   4.195   6.951 -0.1981 -0.4268  0.5526
 3780SOL    HW112781   3.263   4.221   6.861  0.5645  0.0088  0.7994
 3780SOL    HW212782   3.219   4.276   6.995 -2.0180 -0.9244  0.4056
 3781SOL     OW12783   0.757   4.315   6.920 -0.9754  0.1400  0.1231
 3781SOL    HW112784   0.819   4.280   6.856 -0.5339  0.9187  0.1107
 3781SOL    HW212785   0.812   4.352   6.989 -1.4375  0.4237  0.3455
 3782SOL     OW12786   2.798   0.237  10.646  0.6800  0.5023  0.2481
 3782SOL    HW112787   2.847   0.160  10.675  1.6128  0.9490 -0.1075
 3782SOL    HW212788   2.809   0.237  10.551  0.3605  0.8611  0.2130
 3783SOL     OW12789   7.428   7.220  10.203  0.4051 -0.2542  0.0853
 3783SOL    HW112790   7.359   7.154  10.216 -0.6818  0.6584 -0.8784
 3783SOL    HW212791   7.501   7.188  10.257 -0.5183 -1.5957  0.6142
 3784SOL     OW12792   1.473   4.430   4.374 -0.6669  0.1908 -0.4543
 3784SOL    HW112793   1.415   4.362   4.408 -0.2619  0.3028  0.4797
 3784SOL    HW212794   1.472   4.416   4.279 -0.5704 -1.1361 -0.2804
 3785SOL     OW12795   6.560   3.089   3.402  0.2716 -0.7727  0.0656
 3785SOL    HW112796   6.585   3.082   3.310 -1.7688 -0.8403 -0.5422
 3785SOL    HW212797   6.573   3.001   3.438 -0.6003 -1.2078 -0.6516
 3786SOL     OW12798   0.148   7.886   2.502 -0.4131 -0.0267  0.8392
 3786SOL    HW112799   0.188   7.887   2.589 -0.1172  0.8723  0.7113
 3786SOL    HW212800   0.201   7.826   2.451 -0.2254 -0.1024  1.1232
 3787SOL     OW12801   4.033   6.166   9.424 -0.3576 -0.9193 -0.3615
 3787SOL    HW112802   4.040   6.237   9.360  0.5757 -0.4383  0.2530
 3787SOL    HW212803   4.010   6.210   9.506  1.2439 -1.1826  0.2626
 3788SOL     OW12804   7.886   1.144   0.238  0.1392  0.2290 -0.3401
 3788SOL    HW112805   7.857   1.179   0.154 -1.1789 -2.2496 -1.0040
 3788SOL    HW212806   7.881   1.218   0.298 -1.7706  1.3737 -1.7963
 3789SOL     OW12807   4.200   6.382   0.403 -0.2886 -0.1223 -0.2760
 3789SOL    HW112808   4.254   6.338   0.470 -0.5816 -1.4691 -0.8918
 3789SOL    HW212809   4.264   6.422   0.344 -0.0254  1.0595  0.7645
 3790SOL     OW12810   2.661   5.722   0.113  0.0119 -0.0278  0.2985
 3790SOL    HW112811   2.724   5.790   0.135  0.0042  0.1639 -0.2547
 3790SOL    HW212812   2.630   5.690   0.198  1.3122 -0.5698  0.5962
 3791SOL     OW12813   6.395   5.719  10.775 -0.2822  0.0981 -0.0844
 3791SOL    HW112814   6.318   5.775  10.765 -1.6819 -1.8782 -0.8058
 3791SOL    HW212815   6.363   5.642  10.821  1.7412  0.0837  1.4330
 3792SOL     OW12816   1.447   4.377   9.429 -0.3172  0.6427 -0.8132
 3792SOL    HW112817   1.389   4.302   9.442 -1.8150  1.4689 -2.3702
 3792SOL    HW212818   1.499   4.354   9.352  0.0411  0.7177 -0.5944
 3793SOL     OW12819   2.794   1.744   7.604 -0.0561  0.4089  0.0421
 3793SOL    HW112820   2.853   1.792   7.545  0.5241 -0.3413  0.0063
 3793SOL    HW212821   2.774   1.663   7.557  1.6175 -0.8968  1.5024
 3794SOL     OW12822   6.638   7.484  10.429 -0.4783  0.4070 -0.5886
 3794SOL    HW112823   6.717   7.529  10.397 -1.4208  2.2825 -0.4267
 3794SOL    HW212824   6.597   7.450  10.349 -0.1152  0.4714 -0.8065
 3795SOL     OW12825   6.136   6.540   3.288 -0.1921 -0.1597  0.0453
 3795SOL    HW112826   6.157   6.537   3.194 -1.2637 -1.6487 -0.1883
 3795SOL    HW212827   6.058   6.595   3.293 -0.3232 -0.3448  0.0274
 3796SOL     OW12828   2.856   0.439   7.697  0.3521 -0.7740 -0.0868
 3796SOL    HW112829   2.853   0.527   7.659 -2.8360  0.1366  1.8269
 3796SOL    HW212830   2.907   0.450   7.777  2.9433 -1.5932 -1.5105
 3797SOL     OW12831   4.277   5.205  12.410 -0.4314  0.5391 -0.6799
 3797SOL    HW112832   4.230   5.288  12.407  1.1848  1.4957 -0.4378
 3797SOL    HW212833   4.364   5.225  12.377 -0.0992 -1.1476 -0.9339
 3798SOL     OW12834   1.566   1.270   7.520  0.2148  0.6420  0.5257
 3798SOL    HW112835   1.651   1.281   7.478  0.0585  1.5520  0.4177
 3798SOL    HW212836   1.583   1.286   7.613  0.4642 -0.8547  0.7554
 3799SOL     OW12837   5.609   5.479   5.829 -0.1775  0.3872 -0.6781
 3799SOL    HW112838   5.528   5.432   5.807  0.0540  0.1406 -1.0148
 3799SOL    HW212839   5.589   5.570   5.809 -0.0094  0.1851 -1.8505
 3800SOL     OW12840   7.967   2.592   7.643 -0.7917 -0.1589 -0.4621
 3800SOL    HW112841   8.007   2.600   7.730  0.5728 -2.2199 -0.8159
 3800SOL    HW212842   8.018   2.651   7.588 -0.9357  0.3242 -0.0824
 3801SOL     OW12843   5.018   4.995   5.904 -0.1995 -0.2017  0.3787
 3801SOL    HW112844   5.033   5.088   5.921 -0.5942  0.3253 -1.8106
 3801SOL    HW212845   5.000   4.957   5.990  3.7046  0.9627  1.9385
 3802SOL     OW12846   2.608   2.894  10.248  0.3985  0.0519  1.2688
 3802SOL    HW112847   2.665   2.971  10.249  1.5692 -0.7835  0.9949
 3802SOL    HW212848   2.581   2.883  10.339 -1.6608  2.0833  1.0161
 3803SOL     OW12849   0.849   6.618   3.262 -0.1274 -0.2892 -0.3516
 3803SOL    HW112850   0.930   6.567   3.268  0.1967  0.2428 -0.0912
 3803SOL    HW212851   0.808   6.610   3.348  0.7772  1.2498  0.2699
 3804SOL     OW12852   5.909   2.177   0.338  0.0579  0.3247  0.5114
 3804SOL    HW112853   5.915   2.092   0.381 -0.0147 -0.3539 -0.7776
 3804SOL    HW212854   5.997   2.191   0.302 -0.3681  0.0442 -0.6469
 3805SOL     OW12855   6.656   3.115   7.572  0.3393 -0.5440  0.4520
 3805SOL    HW112856   6.643   3.200   7.530  0.2588 -0.4275  0.7062
 3805SOL    HW212857   6.603   3.054   7.522  0.3985 -0.4428  0.2672
 3806SOL     OW12858   0.522   7.255   3.085  0.5194  0.4117 -0.0427
 3806SOL    HW112859   0.554   7.320   3.023  0.2634  0.2301 -0.3672
 3806SOL    HW212860   0.590   7.250   3.153  0.8415  0.5393 -0.3560
 3807SOL     OW12861   6.979   4.989   9.357  0.1287 -0.0860 -0.0613
 3807SOL    HW112862   6.988   4.980   9.451 -1.6784  1.4293  0.3234
 3807SOL    HW212863   6.887   5.014   9.344  0.2483 -0.5603 -2.2471
 3808SOL     OW12864   2.353   4.214   2.398 -0.4596 -0.0280 -0.7816
 3808SOL    HW112865   2.321   4.304   2.396 -0.6655 -0.0999 -0.7079
 3808SOL    HW212866   2.344   4.187   2.489  1.6857  0.6198 -0.3392
 3809SOL     OW12867   0.272   0.200   2.657 -0.3760  0.0712 -0.5971
 3809SOL    HW112868   0.317   0.283   2.642  1.2526 -0.4434  1.0061
 3809SOL    HW212869   0.319   0.137   2.603  0.8674 -0.4560  1.0281
 3810SOL     OW12870   6.398   5.116   5.325  0.8491 -0.4972 -0.4029
 3810SOL    HW112871   6.452   5.052   5.279  1.1933 -0.3919 -0.1472
 3810SOL    HW212872   6.341   5.063   5.381  1.5720 -0.5691  0.2899
 3811SOL     OW12873   6.411   4.262   8.129  0.5010 -0.1450  0.7713
 3811SOL    HW112874   6.451   4.348   8.118  0.5352  0.0678  2.3723
 3811SOL    HW212875   6.356   4.251   8.051  1.2534  0.8864  0.0670
 3812SOL     OW12876   7.212   7.291   0.228  0.3451 -0.3025  0.2927
 3812SOL    HW112877   7.188   7.362   0.286  0.9415  0.5088 -0.4278
 3812SOL    HW212878   7.159   7.217   0.257  0.0881  0.2867  1.3767
 3813SOL     OW12879   2.926   7.745   6.491  0.7468 -0.3201 -0.0068
 3813SOL    HW112880   2.846   7.798   6.496  0.6251 -0.5796  0.9314
 3813SOL    HW212881   2.937   7.729   6.397 -0.3369 -0.3186 -0.1575
 3814SOL     OW12882   4.538   1.626   0.527 -0.6039 -0.0524  0.4829
 3814SOL    HW112883   4.620   1.662   0.494 -0.4109 -1.6017 -0.8556
 3814SOL    HW212884   4.513   1.560   0.462 -1.7013 -1.2462  2.0555
 3815SOL     OW12885   4.807   6.652   0.850  0.0648 -0.0450  0.8085
 3815SOL    HW112886   4.802   6.655   0.946 -1.0575 -0.6788  0.7822
 3815SOL    HW212887   4.737   6.710   0.820 -0.2883 -0.6792  0.3802
 3816SOL     OW12888   4.291   0.385  12.443  0.4023 -0.0570  0.1474
 3816SOL    HW112889   4.274   0.465  12.393  1.2340  0.2955  0.4168
 3816SOL    HW212890   4.320   0.416  12.529 -1.7459 -0.6402  1.1566
 3817SOL     OW12891   2.320   2.548  11.724 -0.0137 -0.4767 -0.1495
 3817SOL    HW112892   2.316   2.472  11.782  0.3576 -0.8792 -0.6408
 3817SOL    HW212893   2.350   2.512  11.640  0.8097  0.3058 -0.2072
 3818SOL     OW12894   1.081   4.285   9.543 -0.4625  0.3457 -0.1343
 3818SOL    HW112895   1.049   4.237   9.620  0.6003  0.1588  0.2054
 3818SOL    HW212896   1.008   4.284   9.482 -0.5351 -1.5277 -0.0565
 3819SOL     OW12897   3.499   0.544   4.142  0.3261 -0.4990 -0.1071
 3819SOL    HW112898   3.561   0.497   4.198  1.8134 -0.0864 -1.3211
 3819SOL    HW212899   3.535   0.632   4.135 -0.8994  0.0168 -0.1290
 3820SOL     OW12900   0.141   7.442   3.794 -0.0778  0.1051  0.9254
 3820SOL    HW112901   0.218   7.464   3.847  0.3582 -0.7978  0.6877
 3820SOL    HW212902   0.099   7.526   3.778  1.4081  0.7675  0.2430
 3821SOL     OW12903   3.663   2.366  10.848  0.1854 -0.0290 -0.1771
 3821SOL    HW112904   3.568   2.367  10.858  0.2322 -1.2043  0.5390
 3821SOL    HW212905   3.682   2.282  10.806  0.8551  0.5334 -1.0405
 3822SOL     OW12906   1.593   2.458  11.091 -0.2191 -0.1208 -0.3405
 3822SOL    HW112907   1.600   2.547  11.128  0.9550 -0.0701 -0.6243
 3822SOL    HW212908   1.531   2.467  11.019  0.4981  0.6675 -0.8861
 3823SOL     OW12909   7.069   5.367  10.757  0.6661 -0.8515 -0.1813
 3823SOL    HW112910   7.018   5.334  10.830  1.3059 -1.6321 -0.0766
 3823SOL    HW212911   7.106   5.289  10.715  1.8893 -0.3100 -0.1579
 3824SOL     OW12912   6.733   0.563   9.462  0.1633 -0.3336 -0.6881
 3824SOL    HW112913   6.786   0.511   9.401 -0.8320 -0.8118 -1.1648
 3824SOL    HW212914   6.725   0.649   9.420 -1.0420 -0.8448 -1.5723
 3825SOL     OW12915   6.387   1.710   1.874 -0.2553 -0.3055  0.4288
 3825SOL    HW112916   6.451   1.686   1.808  0.3039  0.9381  0.4811
 3825SOL    HW212917   6.386   1.636   1.935  1.3070 -0.2669  0.5439
 3826SOL     OW12918   3.328   0.792   1.490 -0.8887 -0.2415  0.2262
 3826SOL    HW112919   3.400   0.749   1.536 -0.1575  1.5213  0.8282
 3826SOL    HW212920   3.251   0.741   1.512  0.1994 -2.4513 -0.7901
 3827SOL     OW12921   0.263   3.795  12.321  0.3996 -0.2846  0.4215
 3827SOL    HW112922   0.285   3.767  12.410  0.7866  0.1502  0.4632
 3827SOL    HW212923   0.220   3.718  12.282 -0.8200 -0.1108  1.3418
 3828SOL     OW12924   6.150   3.346   1.032 -0.1439  0.4244  0.3111
 3828SOL    HW112925   6.151   3.433   1.074  0.4031  1.2671 -1.3759
 3828SOL    HW212926   6.065   3.309   1.056  0.2810  0.6940  2.4460
 3829SOL     OW12927   7.518   3.196   3.411 -0.1163 -0.3501  0.0400
 3829SOL    HW112928   7.526   3.276   3.463 -0.8973  0.5552 -1.1890
 3829SOL    HW212929   7.490   3.225   3.325 -4.2112 -2.2055  0.5240
 3830SOL     OW12930   6.601   6.484   8.727 -0.1899  0.0757  0.5508
 3830SOL    HW112931   6.595   6.500   8.633  1.6411  0.4993  0.4671
 3830SOL    HW212932   6.510   6.468   8.755 -0.7933  0.2176 -1.2187
 3831SOL     OW12933   4.264   3.900  10.968  0.5382  0.0539 -0.2304
 3831SOL    HW112934   4.180   3.856  10.982  0.5659  0.2244  0.4990
 3831SOL    HW212935   4.253   3.947  10.885 -0.5241  1.1195  0.4983
 3832SOL     OW12936   6.926   2.627   9.622 -0.0207  0.5383  0.2724
 3832SOL    HW112937   6.846   2.655   9.577 -0.1205 -1.5527 -0.9821
 3832SOL    HW212938   6.948   2.700   9.680 -2.2316  1.6067 -0.1367
 3833SOL     OW12939   4.334   2.438   7.722  0.4038  0.2686 -0.1547
 3833SOL    HW112940   4.402   2.395   7.774  1.4199  0.2696 -1.4388
 3833SOL    HW212941   4.312   2.375   7.654 -1.9295 -0.2996  1.0535
 3834SOL     OW12942   2.944   4.125   0.596 -0.0758  0.3498 -0.2540
 3834SOL    HW112943   3.019   4.140   0.539  0.3785 -1.6743 -0.2496
 3834SOL    HW212944   2.974   4.061   0.661 -1.3069  0.7627  0.7758
 3835SOL     OW12945   6.196   2.090   0.094 -0.5532  0.3205 -0.3816
 3835SOL    HW112946   6.175   2.025   0.161 -2.4271 -0.7392 -1.9054
 3835SOL    HW212947   6.235   2.040   0.023 -1.2978  0.9652 -1.2693
 3836SOL     OW12948   2.501   6.231  12.319  0.2114  0.3069 -0.3155
 3836SOL    HW112949   2.560   6.159  12.345  1.3036  1.3402  0.1531
 3836SOL    HW212950   2.413   6.195  12.333  0.7237 -0.3111  1.7812
 3837SOL     OW12951   1.092   0.194   6.449  0.7970 -0.2888 -0.0849
 3837SOL    HW112952   1.072   0.112   6.494  0.0216 -0.0177  0.0837
 3837SOL    HW212953   1.090   0.171   6.356  0.9311 -0.5346 -0.0268
 3838SOL     OW12954   5.239   3.588   5.946  0.2829 -0.8341 -0.0420
 3838SOL    HW112955   5.154   3.570   5.905 -0.0113  1.3850 -0.5267
 3838SOL    HW212956   5.277   3.659   5.894  1.4139 -0.2309  1.5133
 3839SOL     OW12957   5.264   0.998   3.641  0.4259  0.4570 -0.3039
 3839SOL    HW112958   5.300   0.931   3.700 -0.7577 -0.0298 -0.1124
 3839SOL    HW212959   5.288   0.968   3.553 -0.9031 -0.7465 -0.2858
 3840SOL     OW12960   2.694   6.726   4.913  0.0984  0.3643  0.0005
 3840SOL    HW112961   2.641   6.762   4.842 -0.2532 -0.4377 -0.1554
 3840SOL    HW212962   2.695   6.632   4.897  3.1016  0.4813 -1.0234
 3841SOL     OW12963   7.851   0.627   8.637 -0.1148 -0.1576 -0.2741
 3841SOL    HW112964   7.885   0.631   8.726  1.5604 -1.3675 -0.8019
 3841SOL    HW212965   7.791   0.701   8.631  2.5314  2.2765  0.7574
 3842SOL     OW12966   5.725   2.049   3.231  0.0076 -0.1489 -0.9198
 3842SOL    HW112967   5.733   2.135   3.272 -0.4591 -0.4393 -0.2138
 3842SOL    HW212968   5.800   2.044   3.171  0.6521  0.3120 -0.1656
 3843SOL     OW12969   1.300   1.363   6.964 -0.1698  0.0777 -0.5813
 3843SOL    HW112970   1.344   1.381   6.881 -0.5923  0.0354 -0.8208
 3843SOL    HW212971   1.273   1.271   6.957  2.0542 -0.7493  0.6705
 3844SOL     OW12972   6.331   0.145   0.133  0.8758 -0.3725  0.2239
 3844SOL    HW112973   6.255   0.104   0.175  0.0788  0.1467 -0.6484
 3844SOL    HW212974   6.384   0.179   0.205 -0.3958  0.4049  0.8355
 3845SOL     OW12975   0.738   5.579   3.551  0.0819  0.6547  0.7782
 3845SOL    HW112976   0.673   5.553   3.487  1.5041  0.1713 -0.5377
 3845SOL    HW212977   0.799   5.634   3.502  2.0668 -0.9906  1.2594
 3846SOL     OW12978   6.631   5.045  10.068  0.1280 -0.2187  0.0397
 3846SOL    HW112979   6.553   4.996  10.094  0.6527 -1.6492 -0.9068
 3846SOL    HW212980   6.690   5.038  10.143  0.2868 -1.2943 -0.1682
 3847SOL     OW12981   1.210   5.803   2.997 -0.2110 -0.1074  0.3228
 3847SOL    HW112982   1.122   5.771   3.015 -0.2220 -0.2087  0.0956
 3847SOL    HW212983   1.267   5.751   3.053 -0.2030 -0.7125 -0.2331
 3848SOL     OW12984   5.773   1.542   7.656 -0.3517 -0.2876  0.1344
 3848SOL    HW112985   5.732   1.602   7.594 -1.0728 -2.4171 -1.5630
 3848SOL    HW212986   5.836   1.493   7.604 -0.5197 -1.7079  1.2095
 3849SOL     OW12987   6.242   4.316   6.674  0.5116  0.1387  0.1665
 3849SOL    HW112988   6.277   4.294   6.587  0.0497  1.0737 -0.2673
 3849SOL    HW212989   6.242   4.232   6.721 -1.1098 -0.8266 -1.4007
 3850SOL     OW12990   4.737   6.183   1.493 -0.1715  0.2504  0.8800
 3850SOL    HW112991   4.766   6.232   1.569 -0.5268 -1.4297  2.1493
 3850SOL    HW212992   4.816   6.142   1.458 -0.3595 -1.3093  2.1279
 3851SOL     OW12993   0.384   6.399   3.367  0.3197 -0.0908  0.2071
 3851SOL    HW112994   0.290   6.381   3.366  0.0383  1.2466  0.0395
 3851SOL    HW212995   0.424   6.321   3.330 -0.7187 -0.7085  0.3406
 3852SOL     OW12996   5.427   3.983   9.487 -0.1079 -0.0949  0.4475
 3852SOL    HW112997   5.452   4.069   9.452  1.0741 -0.2633  0.8174
 3852SOL    HW212998   5.345   3.998   9.534 -1.4026  0.2710 -1.7672
 3853SOL     OW12999   7.693   3.394   3.610  0.0343  0.1347  0.5237
 3853SOL    HW113000   7.697   3.343   3.690 -0.3461  0.4537  0.7444
 3853SOL    HW213001   7.783   3.426   3.598 -0.0310  0.5569  1.1253
 3854SOL     OW13002   5.786   3.875   4.424  0.6024 -0.3863 -0.1345
 3854SOL    HW113003   5.853   3.880   4.356  0.2223  0.8807 -0.4552
 3854SOL    HW213004   5.708   3.843   4.378  0.6813 -0.7628 -0.0092
 3855SOL     OW13005   0.780   1.932   5.661  0.0423 -0.6206 -0.0616
 3855SOL    HW113006   0.797   1.847   5.620  1.1736 -0.3717 -0.1434
 3855SOL    HW213007   0.733   1.910   5.741  0.3636 -1.3366 -0.0557
 3856SOL     OW13008   1.630   4.574   4.003  0.0747  0.8740 -0.0017
 3856SOL    HW113009   1.591   4.498   4.046  0.4532  0.1180 -0.9677
 3856SOL    HW213010   1.682   4.616   4.072  0.9442 -0.5116  0.2255
 3857SOL     OW13011   0.640   7.922   3.582  0.2222 -0.4991 -0.0497
 3857SOL    HW113012   0.649   7.965   3.668  1.1575 -0.5372 -0.1269
 3857SOL    HW213013   0.546   7.903   3.576 -0.1089  0.9217  0.2799
 3858SOL     OW13014   7.134   1.919   9.041  0.7811  0.3496 -0.5597
 3858SOL    HW113015   7.176   1.944   9.122  0.0304  0.1331 -0.0849
 3858SOL    HW213016   7.040   1.917   9.062  0.4945  1.1580 -1.6645
 3859SOL     OW13017   3.071   6.765   6.218 -0.1141 -0.0510 -0.2300
 3859SOL    HW113018   3.165   6.756   6.204  0.0449  1.5649 -0.4344
 3859SOL    HW213019   3.058   6.745   6.311  0.7309  1.5341  0.2539
 3860SOL     OW13020   2.926   2.465   6.870 -0.5870 -0.1720  0.3688
 3860SOL    HW113021   2.843   2.496   6.835 -0.9714 -2.3993 -0.8816
 3860SOL    HW213022   2.901   2.396   6.932  0.2773  0.8461  1.9233
 3861SOL     OW13023   0.088   4.071   2.114  0.2803 -0.1037 -0.1336
 3861SOL    HW113024   0.047   3.998   2.067 -0.9852  0.3748  0.2055
 3861SOL    HW213025   0.172   4.035   2.143  0.1328 -1.0979 -0.8618
 3862SOL     OW13026   0.842   6.382  11.595 -0.9936 -0.3431 -0.0458
 3862SOL    HW113027   0.907   6.415  11.533 -0.1275 -1.4563  0.2314
 3862SOL    HW213028   0.839   6.447  11.664 -1.2752  0.4433 -0.7742
 3863SOL     OW13029   7.043   4.287   3.778  0.1408  0.2306  0.4050
 3863SOL    HW113030   6.955   4.307   3.744 -0.3778 -0.1752  1.4594
 3863SOL    HW213031   7.087   4.371   3.782 -0.0583  0.3867 -0.5242
 3864SOL     OW13032   6.852   3.912   9.653 -0.0325  0.0991  0.4916
 3864SOL    HW113033   6.877   4.003   9.636 -0.6550  0.1210 -0.4255
 3864SOL    HW213034   6.765   3.918   9.692  0.0740 -0.0948  0.7623
 3865SOL     OW13035   0.422   5.193   4.225  0.1646 -0.0125 -0.4500
 3865SOL    HW113036   0.348   5.214   4.282 -0.3340  1.3771 -1.5513
 3865SOL    HW213037   0.395   5.225   4.139  1.5675 -0.5766 -1.1262
 3866SOL     OW13038   5.808   2.679   4.334 -0.0304  0.3402 -0.2373
 3866SOL    HW113039   5.853   2.629   4.401 -0.1143 -1.0311 -1.1523
 3866SOL    HW213040   5.804   2.768   4.368  2.1502  0.2249  0.4597
 3867SOL     OW13041   3.681   0.479   8.466  0.3348  0.0115  0.0028
 3867SOL    HW113042   3.596   0.482   8.510  0.1741 -1.3086 -0.1891
 3867SOL    HW213043   3.670   0.412   8.398  1.2527  0.4749 -0.6175
 3868SOL     OW13044   5.716   7.504   4.323 -0.0750  0.6711 -0.0286
 3868SOL    HW113045   5.725   7.538   4.412  1.6962  1.3216 -0.4154
 3868SOL    HW213046   5.652   7.562   4.281 -1.7574 -0.2986  1.0909
 3869SOL     OW13047   3.625   0.492   3.886 -0.3572 -0.3659 -1.1166
 3869SOL    HW113048   3.691   0.547   3.845 -0.6916  0.9331  0.0093
 3869SOL    HW213049   3.599   0.540   3.964 -1.9364 -1.2959 -1.0210
 3870SOL     OW13050   3.941   0.823   8.415  0.2346 -0.0230  0.3431
 3870SOL    HW113051   3.954   0.800   8.323 -2.8660  0.0593 -0.2148
 3870SOL    HW213052   4.014   0.781   8.460  2.3287  0.6250 -2.1913
 3871SOL     OW13053   2.871   3.716   1.568 -0.1450 -0.4158 -0.1447
 3871SOL    HW113054   2.824   3.697   1.649  0.1482  2.3836  0.8137
 3871SOL    HW213055   2.806   3.762   1.514  0.1984 -0.5854 -0.7045
 3872SOL     OW13056   1.447   4.198   3.043  0.3922 -0.3450 -0.0371
 3872SOL    HW113057   1.492   4.126   3.088 -1.0494  0.0652  2.1832
 3872SOL    HW213058   1.369   4.157   3.005  1.2205 -0.5371 -1.6208
 3873SOL     OW13059   0.160   7.199   7.256  0.9408  0.6084 -0.3235
 3873SOL    HW113060   0.084   7.159   7.213  0.5399  0.6335  0.3459
 3873SOL    HW213061   0.229   7.196   7.190 -0.0262  1.8341 -1.4481
 3874SOL     OW13062   1.010   0.923  11.657 -0.4119  0.1962  0.0851
 3874SOL    HW113063   0.952   0.848  11.648 -0.6394  0.0475  2.4096
 3874SOL    HW213064   0.995   0.956  11.745  0.3896  2.4080 -0.5207
 3875SOL     OW13065   4.758   0.596   3.480  0.0648 -0.1997  0.4432
 3875SOL    HW113066   4.733   0.515   3.525  1.6741 -1.1995 -0.3605
 3875SOL    HW213067   4.852   0.601   3.492  0.3261  0.2724 -1.5467
 3876SOL     OW13068   4.550   7.103   7.046  0.3716 -0.2843  0.1011
 3876SOL    HW113069   4.627   7.091   6.991  0.6115 -2.0904  0.7408
 3876SOL    HW213070   4.504   7.178   7.008  2.9002  1.4756  0.2868
 3877SOL     OW13071   7.879   2.172   6.196  0.4412 -0.1196  0.7317
 3877SOL    HW113072   7.972   2.153   6.190  0.1664 -1.1445 -0.4893
 3877SOL    HW213073   7.837   2.087   6.209 -0.4068  0.2181  0.2838
 3878SOL     OW13074   0.569   5.939   8.568 -0.5510 -0.3220  0.4325
 3878SOL    HW113075   0.601   5.965   8.655 -0.9363 -1.9713  1.1023
 3878SOL    HW213076   0.494   5.997   8.552  1.8003  2.7138 -0.5936
 3879SOL     OW13077   5.033   3.995   5.190  1.1373  0.5673  0.1879
 3879SOL    HW113078   5.033   3.965   5.099 -1.2370  1.3923 -0.1550
 3879SOL    HW213079   5.124   4.018   5.208  1.6641  0.3571 -1.9700
 3880SOL     OW13080   3.383   7.524   5.635  0.2520 -0.0710  0.5945
 3880SOL    HW113081   3.383   7.429   5.624 -0.7118  0.0762 -1.1680
 3880SOL    HW213082   3.473   7.546   5.658  0.7537 -1.3222 -0.0605
 3881SOL     OW13083   5.072   2.953   8.090 -0.4117 -0.8933 -0.1279
 3881SOL    HW113084   5.159   2.927   8.120 -0.0404 -0.5478 -0.8761
 3881SOL    HW213085   5.086   3.033   8.040 -1.1465 -0.8851 -0.3430
 3882SOL     OW13086   3.883   5.457   6.075  0.0312  0.2781  0.2509
 3882SOL    HW113087   3.918   5.476   6.163 -0.3288  0.1837  0.4135
 3882SOL    HW213088   3.846   5.540   6.046  3.4821  1.4365 -1.3883
 3883SOL     OW13089   2.784   3.989  10.504  0.1691 -0.2864 -0.6620
 3883SOL    HW113090   2.852   3.992  10.571  0.7179 -0.5902 -1.2090
 3883SOL    HW213091   2.702   3.981  10.554  0.3561  1.7609  0.0852
 3884SOL     OW13092   4.834   5.164   3.509 -0.0639  0.2441 -0.7359
 3884SOL    HW113093   4.835   5.130   3.598  1.3202 -0.4191 -0.9714
 3884SOL    HW213094   4.753   5.215   3.503 -0.7352 -0.6322  0.5365
 3885SOL     OW13095   4.404   7.056   1.328  0.2131 -0.1930 -0.5111
 3885SOL    HW113096   4.317   7.075   1.292  0.8700 -0.2232 -2.2162
 3885SOL    HW213097   4.442   7.142   1.345  0.4695 -0.1335 -1.3606
 3886SOL     OW13098   6.995   1.364   7.449  0.1083 -0.1702  0.0979
 3886SOL    HW113099   7.010   1.458   7.456  1.0769 -0.3569  0.8759
 3886SOL    HW213100   6.922   1.355   7.388  0.6498  1.0341 -0.7705
 3887SOL     OW13101   4.739   2.728   1.716  0.2871 -0.0101  0.1228
 3887SOL    HW113102   4.746   2.660   1.650 -1.0076  0.9721 -1.0710
 3887SOL    HW213103   4.778   2.806   1.675  1.2988  0.1329  1.2836
 3888SOL     OW13104   5.202   1.497   0.666  0.2894  0.1745  0.2030
 3888SOL    HW113105   5.262   1.458   0.730  0.5207 -0.2595 -0.2710
 3888SOL    HW213106   5.244   1.481   0.581  0.4763  1.6069  0.0063
 3889SOL     OW13107   2.357   1.628  12.418  0.4266  0.2640  0.1608
 3889SOL    HW113108   2.373   1.667  12.332  2.0439  1.2185  0.8337
 3889SOL    HW213109   2.434   1.573  12.434 -0.1537 -0.3984  0.7296
 3890SOL     OW13110   7.605   7.581   4.132 -0.5565 -0.3598  0.2608
 3890SOL    HW113111   7.690   7.550   4.162  0.2315  1.6383  0.2004
 3890SOL    HW213112   7.543   7.519   4.172  0.8166 -1.1611  1.2814
 3891SOL     OW13113   5.728   0.989   0.800  0.2496  0.5599  0.1255
 3891SOL    HW113114   5.714   1.043   0.878 -0.6894  0.0812  0.3130
 3891SOL    HW213115   5.704   1.046   0.727 -2.2201 -0.0037  0.4027
 3892SOL     OW13116   0.162   5.157   3.044 -0.0028 -0.5512  0.0272
 3892SOL    HW113117   0.139   5.165   3.137 -0.4921 -0.4441 -0.1011
 3892SOL    HW213118   0.156   5.063   3.026  0.9600 -0.6782  0.3192
 3893SOL     OW13119   6.985   5.264  12.155 -0.7305 -0.7170 -0.1934
 3893SOL    HW113120   6.932   5.334  12.116 -0.2746 -0.4027 -0.2621
 3893SOL    HW213121   7.075   5.297  12.150 -0.3753 -1.8173 -1.2918
 3894SOL     OW13122   5.053   7.846   7.483  0.0106 -0.2559  0.5718
 3894SOL    HW113123   4.979   7.888   7.438 -0.0280 -0.4533  0.4474
 3894SOL    HW213124   5.129   7.896   7.455 -0.0093 -0.3938  0.2582
 3895SOL     OW13125   4.454   0.692   4.244 -0.0738 -0.3937 -0.1646
 3895SOL    HW113126   4.546   0.682   4.218 -0.4370 -1.0609 -1.2976
 3895SOL    HW213127   4.425   0.772   4.200 -0.0554 -0.2266  0.1284
 3896SOL     OW13128   4.765   7.628   8.642 -0.0967 -0.0660 -0.0192
 3896SOL    HW113129   4.750   7.564   8.573  1.3815 -1.2851  0.7254
 3896SOL    HW213130   4.804   7.703   8.598 -1.9010  0.4023 -0.9111
 3897SOL     OW13131   1.335   1.365   7.429 -0.0476 -0.4884  0.6706
 3897SOL    HW113132   1.264   1.312   7.465  0.6809 -0.2422  2.5614
 3897SOL    HW213133   1.414   1.329   7.467  0.6910  0.4332  0.0609
 3898SOL     OW13134   1.180   0.602  12.120 -0.4090 -0.6659 -0.0127
 3898SOL    HW113135   1.142   0.678  12.075 -1.3300  0.1759  2.0680
 3898SOL    HW213136   1.274   0.621  12.122 -0.7501  1.1347  1.6268
 3899SOL     OW13137   3.072   4.383  10.556  0.1501  0.2141  0.8135
 3899SOL    HW113138   3.077   4.348  10.645 -0.1150  1.0134  1.1555
 3899SOL    HW213139   3.110   4.315  10.501 -1.3372 -1.0977  1.3145
 3900SOL     OW13140   3.625   1.486   0.920  0.0276  0.0648  0.4741
 3900SOL    HW113141   3.581   1.514   1.000  0.6291 -2.3021  1.7152
 3900SOL    HW213142   3.666   1.402   0.942  0.3234 -0.6366 -2.2746
 3901SOL     OW13143   0.259   5.249   5.402  0.2433  0.3055 -0.8707
 3901SOL    HW113144   0.287   5.329   5.358  3.0292 -0.4714 -0.7636
 3901SOL    HW213145   0.334   5.225   5.457 -0.9761 -1.7175  0.0390
 3902SOL     OW13146   4.383   0.791  10.780 -0.4064 -0.7092  0.5124
 3902SOL    HW113147   4.327   0.749  10.714 -0.1505  0.7057 -0.6489
 3902SOL    HW213148   4.453   0.728  10.795  0.9822 -0.0818 -2.5451
 3903SOL     OW13149   7.507   3.142   9.784 -0.2562  0.3343  0.2798
 3903SOL    HW113150   7.563   3.064   9.779  1.1231  1.0036  3.1320
 3903SOL    HW213151   7.533   3.194   9.708  1.1535 -0.5619  0.1086
 3904SOL     OW13152   2.687   2.072   0.426 -0.2646  0.5035  0.0898
 3904SOL    HW113153   2.696   2.165   0.450  0.3516  0.4237  0.1954
 3904SOL    HW213154   2.748   2.061   0.353 -0.3310  0.1768  0.0854
 3905SOL     OW13155   3.760   5.707   2.764  0.1177  0.3416  0.2710
 3905SOL    HW113156   3.761   5.779   2.828 -2.9395  1.2714 -0.5773
 3905SOL    HW213157   3.746   5.628   2.816 -2.2149  1.0751  0.8642
 3906SOL     OW13158   1.339   3.677   2.027 -0.3354 -0.1558  0.0656
 3906SOL    HW113159   1.332   3.606   2.090 -0.8982  0.2774  0.5086
 3906SOL    HW213160   1.250   3.689   1.994  0.3643 -2.3005 -3.0139
 3907SOL     OW13161   7.672   1.841   2.114 -0.5229  0.0223  0.1417
 3907SOL    HW113162   7.735   1.905   2.079 -1.1610  0.9347  0.6328
 3907SOL    HW213163   7.659   1.779   2.042 -0.5488  0.9278 -0.6509
 3908SOL     OW13164   3.373   4.791   2.574 -0.2680 -0.2475 -0.3058
 3908SOL    HW113165   3.419   4.733   2.635  0.5424  0.5457 -0.1304
 3908SOL    HW213166   3.294   4.818   2.621 -0.0575 -0.2872  0.0759
 3909SOL     OW13167   7.242   0.906   2.587  0.3952  0.0069  0.4275
 3909SOL    HW113168   7.223   0.965   2.515 -1.7055 -1.4282 -0.2915
 3909SOL    HW213169   7.253   0.963   2.664 -1.2770  1.3475 -0.2765
 3910SOL     OW13170   3.695   5.754  12.140 -0.9550  0.3015 -0.7708
 3910SOL    HW113171   3.736   5.820  12.085 -0.8868  0.4024 -0.6015
 3910SOL    HW213172   3.694   5.793  12.228  0.7098 -0.6069 -0.2956
 3911SOL     OW13173   0.140   2.030  11.164 -0.0674  0.1288 -0.2230
 3911SOL    HW113174   0.109   2.105  11.114 -0.1175  1.6491  1.9562
 3911SOL    HW213175   0.105   2.043  11.252  2.6261 -0.6847  1.0834
 3912SOL     OW13176   2.475   2.568   1.548  0.2513  0.2033 -0.4317
 3912SOL    HW113177   2.432   2.483   1.562 -0.1900  0.3817 -0.7121
 3912SOL    HW213178   2.545   2.550   1.486  1.1835 -0.2726  0.7046
 3913SOL     OW13179   6.566   7.448   3.756 -0.3732 -0.6957  0.5109
 3913SOL    HW113180   6.626   7.509   3.798 -0.1545 -0.6490  0.1396
 3913SOL    HW213181   6.623   7.377   3.724 -0.6641 -1.2773  1.2601
 3914SOL     OW13182   1.318   6.987   4.599  0.3643 -0.6948 -0.2551
 3914SOL    HW113183   1.254   6.969   4.529 -0.5419 -0.3834  0.4770
 3914SOL    HW213184   1.304   6.917   4.663  1.2065 -0.9905 -0.3803
 3915SOL     OW13185   2.968   1.799   6.670 -0.0341  0.1404  0.3014
 3915SOL    HW113186   2.947   1.861   6.739 -1.5956 -0.5647  0.5008
 3915SOL    HW213187   3.027   1.736   6.711  2.0237  1.7423 -0.0557
 3916SOL     OW13188   1.457   4.085   9.143 -0.2354 -0.0049 -0.5422
 3916SOL    HW113189   1.380   4.069   9.089  0.2412 -1.1029 -0.9336
 3916SOL    HW213190   1.491   3.998   9.163  1.0207  0.4507 -0.5626
 3917SOL     OW13191   6.716   3.144   6.224  0.0706 -0.0664  0.6275
 3917SOL    HW113192   6.759   3.168   6.142  0.9558 -1.0899  0.7720
 3917SOL    HW213193   6.712   3.227   6.273  1.4838  0.1636  0.4135
 3918SOL     OW13194   6.582   5.346   3.024  0.5499 -0.3858  0.0116
 3918SOL    HW113195   6.672   5.348   2.991  0.1673  0.9733 -1.0559
 3918SOL    HW213196   6.573   5.259   3.062  2.4478 -0.4037  0.5587
 3919SOL     OW13197   4.214   5.958   0.867 -0.9043 -0.4471 -0.1518
 3919SOL    HW113198   4.250   5.902   0.799 -1.2559 -0.5333 -0.2717
 3919SOL    HW213199   4.119   5.952   0.855 -0.9419  1.4384 -1.2096
 3920SOL     OW13200   0.664   5.078   4.254  0.2030 -0.4216  0.8073
 3920SOL    HW113201   0.709   5.120   4.327 -1.1036  0.1508  1.2998
 3920SOL    HW213202   0.575   5.111   4.258 -0.0106 -0.7379 -0.7822
 3921SOL     OW13203   2.593   4.443   6.281 -0.6200  0.3052 -0.0402
 3921SOL    HW113204   2.534   4.515   6.260  0.5095  1.3571  0.3230
 3921SOL    HW213205   2.668   4.455   6.222  0.7641  0.9748  1.7662
 3922SOL     OW13206   1.088   1.904   2.075  0.4050  0.0367 -0.0046
 3922SOL    HW113207   1.002   1.918   2.036  1.2995  1.3593 -1.5783
 3922SOL    HW213208   1.139   1.858   2.008  1.6191  1.3332 -0.0253
 3923SOL     OW13209   7.071   3.962   3.673 -0.3144  0.4826  0.2237
 3923SOL    HW113210   7.103   3.914   3.597  0.3063  0.5493  0.4402
 3923SOL    HW213211   7.104   4.051   3.662  0.2812  0.3513  0.8659
 3924SOL     OW13212   4.961   6.480   1.947  0.1162 -0.2070 -0.3141
 3924SOL    HW113213   4.930   6.397   1.909 -0.4218  0.0115 -0.3652
 3924SOL    HW213214   5.046   6.495   1.905  0.0900 -0.5939 -0.5130
 3925SOL     OW13215   2.636   4.314   5.165  1.2280  0.1525 -0.3621
 3925SOL    HW113216   2.672   4.387   5.115  0.2672  0.3862 -0.7259
 3925SOL    HW213217   2.650   4.338   5.257 -0.4575  1.5276 -0.4290
 3926SOL     OW13218   6.005   3.256   0.786 -0.3439 -0.2941 -0.2599
 3926SOL    HW113219   5.991   3.335   0.734 -0.0074 -0.5602 -0.7588
 3926SOL    HW213220   5.932   3.256   0.849  0.1349  0.8917  0.3465
 3927SOL     OW13221   4.224   2.484   5.517 -0.2815  0.2651 -0.3222
 3927SOL    HW113222   4.198   2.439   5.436  0.4985 -0.2776 -0.2861
 3927SOL    HW213223   4.243   2.574   5.489 -0.4485  0.1940 -0.6665
 3928SOL     OW13224   1.601   7.908   9.875  0.3839  0.2757  0.2751
 3928SOL    HW113225   1.562   7.910   9.788 -2.2072  1.3368  1.3607
 3928SOL    HW213226   1.667   7.978   9.874  0.8827 -0.1970 -1.0130
 3929SOL     OW13227   7.324   1.915   9.952 -0.0289 -0.4537 -0.0446
 3929SOL    HW113228   7.246   1.919  10.008  0.3544 -1.8344  0.6223
 3929SOL    HW213229   7.337   1.822   9.935  1.0228 -0.1882 -0.8131
 3930SOL     OW13230   5.986   6.834   2.677  0.3383 -0.1683  0.0165
 3930SOL    HW113231   6.000   6.843   2.583  0.1062  0.6532  0.0580
 3930SOL    HW213232   6.069   6.800   2.710  1.0928  1.3555 -0.2222
 3931SOL     OW13233   7.010   6.177  10.029 -0.5065 -0.1050  0.6100
 3931SOL    HW113234   7.041   6.191  10.119 -0.5451  2.2193  0.3182
 3931SOL    HW213235   6.925   6.221  10.026  0.1825  1.1812 -0.9564
 3932SOL     OW13236   1.631   4.204   1.303  0.8384  0.0875 -0.6564
 3932SOL    HW113237   1.576   4.273   1.340  1.0806  0.4302 -0.9342
 3932SOL    HW213238   1.574   4.158   1.242  0.2421 -0.8827  0.5795
 3933SOL     OW13239   4.019   3.806   7.971 -0.6470  0.3508 -0.8957
 3933SOL    HW113240   3.932   3.819   7.933 -1.9912 -0.7979  1.5518
 3933SOL    HW213241   4.045   3.893   8.001 -2.1040  0.3719  0.4892
 3934SOL     OW13242   7.457   0.160  11.833  0.4213  0.4595  0.5649
 3934SOL    HW113243   7.508   0.130  11.908 -1.1343 -1.4739  0.9328
 3934SOL    HW213244   7.519   0.158  11.760  1.0184 -1.5032  1.0490
 3935SOL     OW13245   2.041   7.171  12.275 -0.0334  0.0959  0.1386
 3935SOL    HW113246   2.054   7.150  12.367  0.0286  0.2208  0.1588
 3935SOL    HW213247   2.127   7.198  12.245 -0.0668  0.1128  0.0589
 3936SOL     OW13248   2.729   0.294   8.165  0.1276  0.2416  0.0236
 3936SOL    HW113249   2.765   0.217   8.209 -2.7106 -0.1265  1.9749
 3936SOL    HW213250   2.735   0.274   8.072  1.3114 -1.4030  0.4110
 3937SOL     OW13251   1.306   0.827   0.608 -0.1359 -0.2873 -0.5988
 3937SOL    HW113252   1.224   0.779   0.598 -0.4319  0.3924 -1.5921
 3937SOL    HW213253   1.368   0.780   0.552  0.3631 -1.2250  0.7036
 3938SOL     OW13254   0.120   3.274   7.422 -0.5013  0.6395  0.6028
 3938SOL    HW113255   0.086   3.214   7.356 -0.0231 -0.4073  1.2879
 3938SOL    HW213256   0.208   3.242   7.441 -0.4549  1.2095  1.4064
 3939SOL     OW13257   6.159   1.931   0.294  0.2708 -0.3068  0.4486
 3939SOL    HW113258   6.075   1.896   0.324 -0.0471 -0.3355 -0.4348
 3939SOL    HW213259   6.202   1.963   0.374 -0.7510  0.0888  0.8617
 3940SOL     OW13260   2.119   0.441   0.184 -0.1563 -0.1073  0.2569
 3940SOL    HW113261   2.040   0.388   0.193 -0.2686 -0.4285 -2.1831
 3940SOL    HW213262   2.087   0.529   0.163  0.1363  0.0053  0.2708
 3941SOL     OW13263   6.837   3.108   8.942 -0.2406 -0.4131  0.0224
 3941SOL    HW113264   6.758   3.061   8.968  0.2556 -0.8028  0.8670
 3941SOL    HW213265   6.901   3.088   9.011 -0.0473  1.5969  0.4852
 3942SOL     OW13266   2.400   6.715  11.663 -0.7145  0.1989 -0.6584
 3942SOL    HW113267   2.458   6.708  11.739 -1.9130 -2.2765  0.1351
 3942SOL    HW213268   2.458   6.739  11.590  1.0108 -0.4904  0.4304
 3943SOL     OW13269   0.834   2.958  11.859  0.2177  0.2521 -0.2053
 3943SOL    HW113270   0.846   2.923  11.947 -1.1511 -0.6328 -0.3297
 3943SOL    HW213271   0.887   3.038  11.857  1.8195 -0.7310  0.7647
 3944SOL     OW13272   5.901   5.512   4.328  0.0963  0.2170  0.0081
 3944SOL    HW113273   5.839   5.484   4.394 -0.1226  0.6485 -0.0122
 3944SOL    HW213274   5.936   5.431   4.291 -1.1061 -0.0376 -0.5971
 3945SOL     OW13275   4.657   0.066   0.752 -0.3608 -0.3202  0.7943
 3945SOL    HW113276   4.738   0.112   0.731  0.4154 -0.8602  2.5148
 3945SOL    HW213277   4.588   0.121   0.714  0.7478  0.5874  0.0567
 3946SOL     OW13278   0.242   3.611   5.141  0.2745  0.0375 -0.3538
 3946SOL    HW113279   0.258   3.517   5.132 -1.7638 -0.3791 -0.1794
 3946SOL    HW213280   0.322   3.646   5.180  0.7528 -1.7801  0.3898
 3947SOL     OW13281   5.537   2.851   0.398  0.8756 -0.4698  0.2221
 3947SOL    HW113282   5.478   2.903   0.344  1.3895  1.0833  1.1173
 3947SOL    HW213283   5.492   2.767   0.408 -0.9763  0.5018  0.4915
 3948SOL     OW13284   3.755   1.253   8.618  0.4577  0.3235 -0.6380
 3948SOL    HW113285   3.752   1.337   8.663  0.6730  0.7134 -1.3411
 3948SOL    HW213286   3.765   1.188   8.689  0.9893  0.9360 -0.1435
 3949SOL     OW13287   4.221   1.947  12.422 -0.3901  0.1291  0.4301
 3949SOL    HW113288   4.313   1.933  12.398 -0.5439  0.5607 -0.4448
 3949SOL    HW213289   4.214   2.041  12.438 -0.6306  0.0599  0.7394
 3950SOL     OW13290   0.335   1.469   4.746 -0.1674  0.1338  0.4814
 3950SOL    HW113291   0.408   1.530   4.740 -0.0694  0.0527  0.8284
 3950SOL    HW213292   0.260   1.518   4.710  0.1958 -0.0309 -0.5341
 3951SOL     OW13293   7.552   0.109   5.474 -0.0802 -0.5077  0.0119
 3951SOL    HW113294   7.482   0.144   5.418  0.8066 -0.6200 -1.2114
 3951SOL    HW213295   7.558   0.017   5.449  0.3138 -0.5651  0.3154
 3952SOL     OW13296   6.632   3.956   8.607  1.1908 -0.0795 -0.6474
 3952SOL    HW113297   6.613   4.050   8.603  1.7369  0.0289 -0.8078
 3952SOL    HW213298   6.689   3.947   8.683 -1.3615 -0.7420  1.3125
 3953SOL     OW13299   6.999   4.669   3.062 -0.3280 -0.4872 -0.2523
 3953SOL    HW113300   7.023   4.698   3.150 -0.4983 -0.7870 -0.1054
 3953SOL    HW213301   6.924   4.723   3.038  0.2730  0.2110 -0.5722
 3954SOL     OW13302   4.729   0.923   8.842 -0.0027 -0.1542 -0.0522
 3954SOL    HW113303   4.747   0.948   8.933  0.3824 -2.1585  0.4823
 3954SOL    HW213304   4.759   0.832   8.836  0.3970  0.0688 -2.3240
 3955SOL     OW13305   3.569   6.202   9.244  0.2497  0.5444 -0.0274
 3955SOL    HW113306   3.582   6.296   9.233 -1.6440  0.9646  0.9614
 3955SOL    HW213307   3.657   6.165   9.238  0.9917  2.3342 -0.7442
 3956SOL     OW13308   4.130   0.137   1.458  0.0802  0.5184 -0.6203
 3956SOL    HW113309   4.173   0.222   1.452 -1.9396  1.8004  1.4095
 3956SOL    HW213310   4.064   0.148   1.527 -0.6913 -2.5179 -0.7215
 3957SOL     OW13311   2.799   1.417   8.503 -0.1225  0.0689  0.0841
 3957SOL    HW113312   2.788   1.488   8.440 -0.8332 -0.2026 -0.1081
 3957SOL    HW213313   2.840   1.459   8.579 -0.3070  0.6349 -0.1249
 3958SOL     OW13314   7.150   1.966   5.976  0.2591 -0.0940 -0.3107
 3958SOL    HW113315   7.132   1.996   6.065 -1.9065  0.4844 -0.9061
 3958SOL    HW213316   7.246   1.963   5.971  0.4404 -0.4760  2.1270
 3959SOL     OW13317   4.045   6.914   7.927  0.7368  0.1922 -0.2805
 3959SOL    HW113318   4.034   6.968   7.849  2.1944  0.4551 -0.3255
 3959SOL    HW213319   4.035   6.976   8.000 -0.4377 -0.0201 -0.2404
 3960SOL     OW13320   1.385   1.271   2.018 -0.4047 -0.8609  0.4741
 3960SOL    HW113321   1.375   1.222   2.099 -1.2949 -0.0723  0.8589
 3960SOL    HW213322   1.298   1.307   2.000  0.1926  0.5269  0.1979
 3961SOL     OW13323   2.197   4.604   1.766  0.1153  0.1969  0.0822
 3961SOL    HW113324   2.274   4.636   1.720 -0.1952  1.3719  0.3478
 3961SOL    HW213325   2.203   4.643   1.853  0.3526 -1.4621  0.8691
 3962SOL     OW13326   5.455   7.310  10.484  0.0242  0.0331 -0.4116
 3962SOL    HW113327   5.363   7.323  10.461  0.2729  1.1528 -0.8254
 3962SOL    HW213328   5.482   7.236  10.429 -0.6997 -0.5215 -0.0504
 3963SOL     OW13329   2.934   6.241   1.530 -0.1438  1.1474  0.5821
 3963SOL    HW113330   2.995   6.314   1.536 -1.2071  2.3835 -2.0792
 3963SOL    HW213331   2.852   6.280   1.500 -0.7831 -1.0978 -0.8504
 3964SOL     OW13332   3.011   0.547   4.492 -0.1195 -0.1089  0.1744
 3964SOL    HW113333   3.021   0.452   4.499 -1.1267 -0.1039  2.0892
 3964SOL    HW213334   3.070   0.582   4.558 -0.6956  0.5426  0.3503
 3965SOL     OW13335   2.469   5.689   8.170  0.5476  0.4452 -0.3248
 3965SOL    HW113336   2.416   5.704   8.092 -0.2005 -0.5562 -0.0285
 3965SOL    HW213337   2.555   5.726   8.149 -0.2018  1.9472 -0.8693
 3966SOL     OW13338   3.906   7.322   8.116 -0.3180 -0.7801 -0.1552
 3966SOL    HW113339   3.845   7.358   8.180 -1.5217 -0.3369 -1.5116
 3966SOL    HW213340   3.851   7.280   8.051  0.9198 -1.9895 -0.4768
 3967SOL     OW13341   7.475   5.228   0.419 -0.0976  0.7354 -0.4107
 3967SOL    HW113342   7.535   5.175   0.471 -1.2067  0.6382  0.8192
 3967SOL    HW213343   7.391   5.183   0.426 -0.6810  1.7362 -0.7703
 3968SOL     OW13344   5.583   0.458  10.334  0.2402 -0.6132  0.5065
 3968SOL    HW113345   5.596   0.552  10.320  0.5602  0.0245  3.9938
 3968SOL    HW213346   5.499   0.451  10.378  0.3372 -1.9366  0.5426
 3969SOL     OW13347   4.503   2.531   9.102 -0.0278 -0.3862 -0.2686
 3969SOL    HW113348   4.569   2.598   9.122  0.1210 -0.5630 -0.1614
 3969SOL    HW213349   4.464   2.510   9.187 -0.0761 -0.4337 -0.3028
 3970SOL     OW13350   7.794   4.635   5.556 -0.5839  0.2676  0.4870
 3970SOL    HW113351   7.776   4.678   5.640 -0.3609  1.1229  0.1021
 3970SOL    HW213352   7.787   4.704   5.491  0.1754 -0.1926 -0.1087
 3971SOL     OW13353   6.512   4.101   4.878  0.5974 -0.4134  0.0672
 3971SOL    HW113354   6.538   4.181   4.833  2.2561 -1.2974 -0.6526
 3971SOL    HW213355   6.425   4.080   4.842  0.1561  0.9998  0.2424
 3972SOL     OW13356   4.174   1.831  11.415  0.0794 -0.2693 -0.8604
 3972SOL    HW113357   4.197   1.919  11.387 -0.0516 -0.5589 -1.9235
 3972SOL    HW213358   4.090   1.841  11.460 -0.9713 -0.1051 -2.7670
 3973SOL     OW13359   1.384   5.394   9.633  0.5737 -0.7586  0.5655
 3973SOL    HW113360   1.401   5.412   9.725  1.0697 -0.3119  0.3900
 3973SOL    HW213361   1.351   5.304   9.632 -2.2660  0.1843  1.4815
 3974SOL     OW13362   2.759   4.675   8.779  0.1030 -0.6462 -0.4369
 3974SOL    HW113363   2.849   4.686   8.750  0.1726 -1.7222 -0.6501
 3974SOL    HW213364   2.762   4.694   8.873  0.4404 -0.1266 -0.5491
 3975SOL     OW13365   7.655   7.363   6.412  0.4802 -0.6422 -0.2035
 3975SOL    HW113366   7.633   7.432   6.349 -1.0848  0.8617  1.8833
 3975SOL    HW213367   7.605   7.287   6.382 -0.0361 -0.0317 -0.9389
 3976SOL     OW13368   3.976   2.435   9.190 -0.8312 -0.3509 -0.0571
 3976SOL    HW113369   3.984   2.484   9.109 -1.2521 -0.6437 -0.2824
 3976SOL    HW213370   3.893   2.388   9.181 -0.2983 -1.3334  0.0195
 3977SOL     OW13371   0.636   5.658   8.505  0.0319 -0.5180  0.7850
 3977SOL    HW113372   0.611   5.738   8.550  2.0814 -0.3570  1.7556
 3977SOL    HW213373   0.555   5.607   8.498 -1.2670  1.5166  0.3206
 3978SOL     OW13374   0.304   3.010   9.432  0.4727  0.5711  0.3160
 3978SOL    HW113375   0.297   3.007   9.527  0.9733  1.1712  0.3751
 3978SOL    HW213376   0.248   2.938   9.401 -1.1099  1.4661  0.9765
 3979SOL     OW13377   3.250   6.945   3.858 -0.5269  0.0163 -0.0034
 3979SOL    HW113378   3.295   6.971   3.939 -0.2323  0.6971 -0.3713
 3979SOL    HW213379   3.176   7.005   3.852 -0.9736 -0.5175  0.1375
 3980SOL     OW13380   0.616   1.246  11.790  0.2117  0.2026  0.7308
 3980SOL    HW113381   0.617   1.330  11.836 -1.2376  0.3261  0.5797
 3980SOL    HW213382   0.620   1.180  11.859 -0.6900  0.3910  0.9699
 3981SOL     OW13383   2.838   1.663  12.365 -0.1895  0.3464 -0.2745
 3981SOL    HW113384   2.825   1.570  12.350 -1.3128  0.4876 -0.2775
 3981SOL    HW213385   2.789   1.706  12.294 -0.3354  0.9376  0.1698
 3982SOL     OW13386   5.850   3.449   8.141 -0.1732  0.3566 -0.2484
 3982SOL    HW113387   5.928   3.452   8.196  0.4219  0.9519 -1.1147
 3982SOL    HW213388   5.800   3.527   8.165  1.4594  2.2285 -2.4946
 3983SOL     OW13389   2.242   1.038  10.812 -0.5709 -0.4319 -0.1783
 3983SOL    HW113390   2.225   1.034  10.717 -2.6009 -0.1673  0.1315
 3983SOL    HW213391   2.177   1.100  10.845  0.5085 -0.0473  1.3344
 3984SOL     OW13392   5.865   2.005   2.046  0.2769  0.3254  0.9927
 3984SOL    HW113393   5.834   1.965   2.127  1.7847 -0.5950  1.1571
 3984SOL    HW213394   5.837   1.944   1.977 -0.6573  0.9057  0.8435
 3985SOL     OW13395   5.650   6.186   6.123 -0.2234  0.8020 -0.0948
 3985SOL    HW113396   5.596   6.211   6.197 -1.4196 -0.8793 -0.3561
 3985SOL    HW213397   5.722   6.249   6.124 -1.2856  2.0702  1.2533
 3986SOL     OW13398   0.913   1.341   2.266 -0.4828  0.2378 -0.4808
 3986SOL    HW113399   0.848   1.295   2.211 -0.8809  1.7763 -1.3446
 3986SOL    HW213400   0.992   1.286   2.260 -1.3942 -1.1694 -0.1737
 3987SOL     OW13401   6.214   6.377   9.362 -0.2388  0.1461 -0.2626
 3987SOL    HW113402   6.208   6.285   9.390  0.0148 -0.0491 -0.8160
 3987SOL    HW213403   6.230   6.426   9.442  1.0232 -0.4510 -0.1237
 3988SOL     OW13404   4.151   6.504   2.059  0.2544 -0.2113  0.0705
 3988SOL    HW113405   4.208   6.450   2.003  0.3594  0.7153 -0.7477
 3988SOL    HW213406   4.210   6.541   2.124  0.5596  0.5775 -0.6462
 3989SOL     OW13407   5.085   7.202   9.452 -0.0724 -0.2569  0.1384
 3989SOL    HW113408   5.021   7.143   9.492 -0.2992 -0.4236 -0.4578
 3989SOL    HW213409   5.166   7.150   9.449  0.0121 -0.1546  0.6088
 3990SOL     OW13410   0.037   0.869   8.251  0.2766  0.3014  0.5602
 3990SOL    HW113411   0.081   0.920   8.319 -1.5717  1.1601  1.1941
 3990SOL    HW213412   0.008   0.935   8.188  0.5580 -0.3240 -0.2316
 3991SOL     OW13413   3.391   4.371   1.560 -0.3295  0.0623  0.1876
 3991SOL    HW113414   3.327   4.436   1.590  0.3375  0.8570 -0.1038
 3991SOL    HW213415   3.453   4.363   1.632  0.8493  1.4195 -0.6232
 3992SOL     OW13416   2.618   3.487  10.760 -0.4327  0.0437  0.2520
 3992SOL    HW113417   2.536   3.510  10.805 -0.3876 -1.1449  0.9978
 3992SOL    HW213418   2.590   3.433  10.687 -0.4624  1.5435 -0.8930
 3993SOL     OW13419   0.189   3.521   1.389  0.6003 -0.2641  0.8592
 3993SOL    HW113420   0.231   3.603   1.414 -0.5035 -0.0148  1.9962
 3993SOL    HW213421   0.100   3.528   1.422  0.1883 -1.5238  0.1070
 3994SOL     OW13422   0.536   7.041   8.855  0.3847 -0.4373  0.3146
 3994SOL    HW113423   0.464   7.043   8.918  1.1726  0.2634  1.2275
 3994SOL    HW213424   0.600   6.980   8.892  0.0041 -1.5752 -0.8161
 3995SOL     OW13425   4.998   0.095  10.520  0.3632  0.3121  0.2737
 3995SOL    HW113426   5.007   0.049  10.437  0.1476 -1.3209  1.1292
 3995SOL    HW213427   4.943   0.171  10.498 -0.6052 -0.6755 -0.8684
 3996SOL     OW13428   4.772   4.588   4.295 -0.5102  0.0681  0.0231
 3996SOL    HW113429   4.811   4.587   4.382 -0.8343  0.0518  0.1682
 3996SOL    HW213430   4.752   4.680   4.278  0.2648  0.1763 -0.3557
 3997SOL     OW13431   4.533   1.251   7.365 -0.2800  0.1437  0.2492
 3997SOL    HW113432   4.480   1.187   7.318  1.8424 -1.0708 -0.6176
 3997SOL    HW213433   4.482   1.332   7.360 -1.0805 -0.4244 -2.4275
 3998SOL     OW13434   1.182   5.201   7.205  0.5878 -0.7364  0.1210
 3998SOL    HW113435   1.120   5.194   7.277  0.0448 -0.8089 -0.3506
 3998SOL    HW213436   1.228   5.118   7.204  1.1589 -0.4384  0.8886
 3999SOL     OW13437   3.469   3.454   4.144  0.1135 -0.1221 -0.0690
 3999SOL    HW113438   3.497   3.365   4.127  1.3480  0.2379 -0.0143
 3999SOL    HW213439   3.426   3.450   4.230  1.0574 -0.4886  0.3906
 4000SOL     OW13440   1.835   7.707   3.490  0.1917  0.0022  0.0126
 4000SOL    HW113441   1.761   7.744   3.537  0.7802  1.3425 -0.0641
 4000SOL    HW213442   1.814   7.614   3.480 -1.9362  0.5487 -0.9151
 4001SOL     OW13443   5.171   1.679   1.626 -0.0426  0.4675 -0.0987
 4001SOL    HW113444   5.140   1.670   1.536 -0.2100  0.5379 -0.0482
 4001SOL    HW213445   5.265   1.665   1.620 -0.1293 -0.1237 -0.2019
 4002SOL     OW13446   2.480   3.248   9.112 -0.8935 -0.2584 -0.4375
 4002SOL    HW113447   2.534   3.313   9.067 -1.9159  1.1917  0.3248
 4002SOL    HW213448   2.484   3.171   9.056  2.9524 -0.7170  0.2174
 4003SOL     OW13449   6.998   0.543   6.790 -0.0428  0.3787  0.0355
 4003SOL    HW113450   6.949   0.616   6.828 -1.1671 -0.7098  0.7707
 4003SOL    HW213451   6.945   0.517   6.714 -0.0316 -0.1265  0.2006
 4004SOL     OW13452   7.041   2.735   3.885 -0.1870 -0.3591  0.2072
 4004SOL    HW113453   7.080   2.746   3.798  0.8851 -2.0797  0.4271
 4004SOL    HW213454   7.043   2.822   3.924  1.7697 -0.0613 -0.4866
 4005SOL     OW13455   3.861   4.750   0.910 -0.1041  0.0343 -0.1772
 4005SOL    HW113456   3.796   4.682   0.898  1.1451 -1.5288  1.4345
 4005SOL    HW213457   3.929   4.730   0.845  1.2798 -1.6349  1.6747
 4006SOL     OW13458   3.972   6.493   8.987 -0.2343 -0.0201 -0.2920
 4006SOL    HW113459   3.881   6.522   8.985 -0.4592 -0.7351 -1.7146
 4006SOL    HW213460   3.998   6.489   8.895  0.6970 -1.4674 -0.0063
 4007SOL     OW13461   4.091   4.567   0.141 -0.3305  0.4948 -0.0907
 4007SOL    HW113462   4.019   4.572   0.204  0.2546 -0.2547  0.6501
 4007SOL    HW213463   4.076   4.485   0.094  0.7364 -0.3304  0.9557
 4008SOL     OW13464   0.133   3.505   4.278  0.3765 -0.3212 -0.2740
 4008SOL    HW113465   0.093   3.569   4.336  2.8065  2.5366 -1.4620
 4008SOL    HW213466   0.144   3.426   4.332  0.4314  1.4003  2.3993
 4009SOL     OW13467   6.185   3.456   3.918 -0.6870 -0.1438 -0.0599
 4009SOL    HW113468   6.266   3.444   3.969 -1.5689 -0.1675  1.3982
 4009SOL    HW213469   6.207   3.522   3.853  0.6726 -0.5836 -0.0848
 4010SOL     OW13470   5.280   4.333  10.660 -0.2959  0.0052  0.2646
 4010SOL    HW113471   5.343   4.260  10.663 -0.8751 -0.5425 -0.5111
 4010SOL    HW213472   5.303   4.387  10.736 -1.9731 -2.7519  2.9814
 4011SOL     OW13473   2.517   5.470   5.050  0.1615  0.0100 -0.3640
 4011SOL    HW113474   2.494   5.543   5.107 -1.0800 -0.1535 -0.6207
 4011SOL    HW213475   2.555   5.404   5.108 -0.1944  0.2337  0.1251
 4012SOL     OW13476   4.680   5.129  11.346  0.4233 -0.2614  0.0377
 4012SOL    HW113477   4.723   5.130  11.261  0.7192  0.8942  0.1860
 4012SOL    HW213478   4.741   5.083  11.404 -0.0015 -1.4956 -0.4729
 4013SOL     OW13479   5.570   0.314  11.548 -0.3901 -0.1456  0.0494
 4013SOL    HW113480   5.601   0.354  11.466  0.3091  0.8455  0.7729
 4013SOL    HW213481   5.479   0.341  11.554 -0.8406 -1.2955 -1.0219
 4014SOL     OW13482   0.833   3.020   2.253  0.0027  0.3823  0.2960
 4014SOL    HW113483   0.801   3.027   2.343  0.1686  2.4131  0.2449
 4014SOL    HW213484   0.756   2.993   2.202 -0.3965  0.4200  0.8662
 4015SOL     OW13485   7.387   0.154   2.025  0.2877  0.1890  0.2199
 4015SOL    HW113486   7.396   0.060   2.036  0.0404 -0.0748 -1.4595
 4015SOL    HW213487   7.362   0.187   2.111 -1.0287 -1.4674  0.5108
 4016SOL     OW13488   4.162   0.965  12.377  0.0866 -0.3954  0.1920
 4016SOL    HW113489   4.082   0.918  12.351  0.6229 -0.0466 -2.3469
 4016SOL    HW213490   4.220   0.897  12.411 -0.7874 -0.8452  0.8398
 4017SOL     OW13491   3.870   7.356   7.264 -0.1484  0.5121  0.6875
 4017SOL    HW113492   3.902   7.273   7.228 -0.4984 -0.1241  1.8017
 4017SOL    HW213493   3.937   7.420   7.239 -0.6343  0.2351 -1.5555
 4018SOL     OW13494   0.544   6.791   3.867 -0.2041 -0.0728 -0.4215
 4018SOL    HW113495   0.498   6.707   3.858  0.8907 -0.4835 -3.2683
 4018SOL    HW213496   0.633   6.767   3.891 -0.3790  0.4556  0.8347
 4019SOL     OW13497   4.991   3.366   9.976 -0.2430  0.0025 -0.2808
 4019SOL    HW113498   4.932   3.411   9.915  0.7126  0.6671 -0.7416
 4019SOL    HW213499   5.054   3.320   9.919 -0.2967 -0.6844  0.1996
 4020SOL     OW13500   0.084   3.245   4.646 -0.8597  0.2714 -0.3087
 4020SOL    HW113501   0.112   3.273   4.733  0.1246  1.8151 -1.0546
 4020SOL    HW213502   0.106   3.152   4.642 -2.4546 -0.2617  1.6309
 4021SOL     OW13503   5.620   0.984  10.429 -0.8993 -0.3679 -0.2946
 4021SOL    HW113504   5.542   1.024  10.469 -0.2412  1.2578 -0.5519
 4021SOL    HW213505   5.616   1.010  10.337  1.6443  2.7835  0.2927
 4022SOL     OW13506   4.835   4.501   8.920  0.3113  0.1509  0.2353
 4022SOL    HW113507   4.900   4.528   8.985  1.7626  1.2181 -1.5364
 4022SOL    HW213508   4.778   4.578   8.911  0.0619 -0.0268  0.3020
 4023SOL     OW13509   4.873   0.064   0.014  0.0430  0.1407 -0.3690
 4023SOL    HW113510   4.943   0.012   0.053  1.5416  1.4046 -1.2375
 4023SOL    HW213511   4.793   0.016   0.034  0.8518 -0.1548  2.7858
 4024SOL     OW13512   3.439   6.953   9.805  0.1787 -0.3455  0.2184
 4024SOL    HW113513   3.420   7.018   9.738 -2.2515 -0.3307  0.8408
 4024SOL    HW213514   3.534   6.957   9.815  0.1894  2.9764  0.0754
 4025SOL     OW13515   5.863   0.688   0.167 -0.4376 -0.1701  0.2255
 4025SOL    HW113516   5.791   0.663   0.108 -1.5755 -1.2065  1.9510
 4025SOL    HW213517   5.940   0.693   0.110 -1.7008  0.1628 -1.5563
 4026SOL     OW13518   3.549   7.155   3.313  0.8359 -0.6444 -0.3279
 4026SOL    HW113519   3.608   7.229   3.324  0.2101 -0.3078  1.0471
 4026SOL    HW213520   3.556   7.107   3.396 -1.6858  0.0793  0.4018
 4027SOL     OW13521   7.594   2.273   4.477 -0.5904 -0.1593 -0.5732
 4027SOL    HW113522   7.526   2.302   4.537 -1.2030 -1.1355 -0.7771
 4027SOL    HW213523   7.565   2.304   4.391  0.1021  0.9187 -0.4370
 4028SOL     OW13524   6.706   7.970   6.990  0.0029  0.0891 -0.4552
 4028SOL    HW113525   6.654   8.037   6.945 -0.6357 -0.5285 -0.6506
 4028SOL    HW213526   6.646   7.931   7.054  1.1213  1.5305  1.6000
 4029SOL     OW13527   4.804   0.989   9.107 -0.0255  0.0793  0.2460
 4029SOL    HW113528   4.833   0.938   9.183 -0.3921  0.8294  0.9079
 4029SOL    HW213529   4.804   1.080   9.138 -0.9016  0.3191 -0.4248
 4030SOL     OW13530   4.996   5.577   5.224 -0.2718  0.2836 -0.0706
 4030SOL    HW113531   5.064   5.510   5.235 -0.3628 -0.4255 -2.9819
 4030SOL    HW213532   5.033   5.638   5.160 -0.9634  2.0030  1.1023
 4031SOL     OW13533   5.812   0.425   1.778  0.2144  0.1537 -0.1086
 4031SOL    HW113534   5.801   0.507   1.729 -1.5489  0.3347  0.5136
 4031SOL    HW213535   5.754   0.434   1.853  0.5361 -1.3816  0.3578
 4032SOL     OW13536   2.977   5.518   3.357 -0.5275 -0.1353 -0.1396
 4032SOL    HW113537   2.977   5.463   3.279  0.5464  0.1108 -0.3203
 4032SOL    HW213538   3.059   5.498   3.402 -1.3737 -0.6605  1.2189
 4033SOL     OW13539   5.088   1.941   8.498  0.1834  0.5870 -0.0716
 4033SOL    HW113540   5.105   1.952   8.592 -0.6089 -0.5875  0.2386
 4033SOL    HW213541   5.169   1.970   8.456  0.5957  1.0279  0.9808
 4034SOL     OW13542   4.185   5.584   7.517  0.1563  0.0338  0.1643
 4034SOL    HW113543   4.161   5.669   7.554 -0.6076  0.3229 -0.9644
 4034SOL    HW213544   4.139   5.580   7.433  1.5007 -0.7997 -0.5567
 4035SOL     OW13545   5.909   2.609  12.061  0.2339 -0.7430 -0.4370
 4035SOL    HW113546   5.951   2.526  12.083 -0.8250 -1.3435 -0.6313
 4035SOL    HW213547   5.978   2.661  12.021  0.4776 -2.2056 -2.0151
 4036SOL     OW13548   1.353   6.299   4.154  0.3672 -0.0778 -0.2966
 4036SOL    HW113549   1.258   6.310   4.161  0.6614  2.3271  0.6695
 4036SOL    HW213550   1.385   6.317   4.242  1.8570  0.9810 -1.0214
 4037SOL     OW13551   7.760   0.341   9.601  0.2247  0.0810 -0.4746
 4037SOL    HW113552   7.705   0.263   9.595  0.9375 -0.3549 -1.6319
 4037SOL    HW213553   7.757   0.379   9.513  1.0016  0.5809 -0.2929
 4038SOL     OW13554   0.094   5.294  10.621  0.5371 -0.3199  0.3624
 4038SOL    HW113555   0.046   5.354  10.677 -0.0061  0.4753 -0.9151
 4038SOL    HW213556   0.155   5.349  10.573  0.8319 -0.9505 -0.0010
 4039SOL     OW13557   0.477   1.855   6.159  0.7153  0.6486  0.1193
 4039SOL    HW113558   0.417   1.847   6.085 -0.0444  0.7793  0.7121
 4039SOL    HW213559   0.526   1.773   6.160 -1.1039 -0.4756  1.0460
 4040SOL     OW13560   2.349   5.431   8.264 -0.2592 -0.0279  0.1304
 4040SOL    HW113561   2.336   5.367   8.194 -1.3485  0.7277 -0.3993
 4040SOL    HW213562   2.408   5.497   8.226  0.3869 -0.4052  0.4687
 4041SOL     OW13563   7.648   1.788   3.151 -0.3554  0.1098  0.0856
 4041SOL    HW113564   7.718   1.764   3.211  1.2778  0.9777 -1.4094
 4041SOL    HW213565   7.688   1.849   3.089 -2.2665  0.1292 -1.2313
 4042SOL     OW13566   6.919   1.538   2.425 -0.3521 -0.0338 -0.1323
 4042SOL    HW113567   6.825   1.548   2.411 -0.0702  1.7083 -0.9831
 4042SOL    HW213568   6.945   1.615   2.475  0.5837 -0.6875  0.4399
 4043SOL     OW13569   5.831   6.392   1.113  0.3294  0.1271  0.1295
 4043SOL    HW113570   5.866   6.373   1.200  0.3929 -0.8817 -0.0991
 4043SOL    HW213571   5.786   6.311   1.088  0.0464  0.5180 -0.6454
 4044SOL     OW13572   2.851   5.321   5.011  0.3516 -0.6134 -0.2284
 4044SOL    HW113573   2.860   5.232   5.046 -1.3034 -0.9245 -0.5230
 4044SOL    HW213574   2.882   5.378   5.082  0.5713 -1.3806  0.3013
 4045SOL     OW13575   6.779   5.800  10.583  0.4728  0.2642  0.3597
 4045SOL    HW113576   6.819   5.886  10.575  1.3771  0.0221  1.8995
 4045SOL    HW213577   6.849   5.744  10.617 -0.3519 -0.8661  0.2489
 4046SOL     OW13578   7.971   3.087   5.704  0.3145 -0.3675 -0.2423
 4046SOL    HW113579   7.995   3.016   5.644 -0.4506 -0.3746 -0.5453
 4046SOL    HW213580   8.055   3.121   5.735  0.7011 -0.9444 -0.6372
 4047SOL     OW13581   2.989   0.059   5.616 -0.4205 -0.0171 -0.0899
 4047SOL    HW113582   3.005   0.154   5.616 -0.6340  0.0202 -0.2705
 4047SOL    HW213583   2.975   0.038   5.524  1.8796 -0.6135 -0.3775
 4048SOL     OW13584   3.562   0.962   7.553  0.3540  0.0409  0.1601
 4048SOL    HW113585   3.553   0.982   7.646  1.0117  2.4849 -0.2263
 4048SOL    HW213586   3.613   0.882   7.550 -2.0691 -1.7127  1.9052
 4049SOL     OW13587   5.182   5.870   2.359  0.0677 -0.0400  0.0766
 4049SOL    HW113588   5.125   5.947   2.353  1.1674  0.7455 -0.6345
 4049SOL    HW213589   5.208   5.866   2.451  1.2667  1.4148 -0.1560
 4050SOL     OW13590   5.168   7.542   3.916 -0.0882 -0.1866 -0.7145
 4050SOL    HW113591   5.126   7.456   3.922 -1.4717  0.3834 -1.7125
 4050SOL    HW213592   5.225   7.546   3.993  1.1348 -2.5607 -1.3753
 4051SOL     OW13593   5.133   3.621   8.577 -0.0013 -0.2032  0.1954
 4051SOL    HW113594   5.175   3.617   8.491  0.6454 -0.0291  0.4970
 4051SOL    HW213595   5.131   3.530   8.607 -0.1222 -0.2495  0.0483
 4052SOL     OW13596   4.077   1.704   2.006  0.2276  0.1249  0.0761
 4052SOL    HW113597   4.133   1.657   2.068 -0.2236  0.3454  0.6693
 4052SOL    HW213598   4.050   1.639   1.942  0.2864 -0.2275  0.4093
 4053SOL     OW13599   1.323   5.307   0.342  0.1404  0.5518 -0.4958
 4053SOL    HW113600   1.409   5.265   0.336 -0.2396 -0.1539 -1.2380
 4053SOL    HW213601   1.333   5.372   0.411  0.6701 -0.9520  0.9140
 4054SOL     OW13602   2.519   0.973   5.492  1.0010  0.3032 -0.3357
 4054SOL    HW113603   2.534   0.882   5.518 -0.9977 -0.2118 -0.7677
 4054SOL    HW213604   2.602   1.017   5.507  0.7065 -0.3297  5.0341
 4055SOL     OW13605   5.730   2.346   0.836  0.1700 -0.1269  0.3536
 4055SOL    HW113606   5.768   2.336   0.749  1.1242  0.2329  0.7155
 4055SOL    HW213607   5.707   2.439   0.842  2.0797  0.3377  1.2372
 4056SOL     OW13608   1.952   0.401   1.233 -0.3270  0.1492  0.1781
 4056SOL    HW113609   1.890   0.423   1.163 -0.6014  0.8172  0.6115
 4056SOL    HW213610   2.005   0.330   1.197 -0.0003  0.9306 -0.9764
 4057SOL     OW13611   2.605   7.254   5.624  0.1335 -0.3249  0.3631
 4057SOL    HW113612   2.700   7.263   5.610  0.1811 -0.4581  0.6008
 4057SOL    HW213613   2.566   7.318   5.564  0.3486 -0.7694 -0.2703
 4058SOL     OW13614   2.171   6.856   3.731 -0.1192  0.0374  0.2815
 4058SOL    HW113615   2.120   6.822   3.804  0.7577  0.6701  1.2051
 4058SOL    HW213616   2.251   6.889   3.770  0.2053  0.7404 -0.9192
 4059SOL     OW13617   2.562   7.514   4.673 -0.0439  0.3576  0.0030
 4059SOL    HW113618   2.515   7.559   4.744 -0.1708 -0.7714  0.6644
 4059SOL    HW213619   2.496   7.458   4.633  0.5992 -0.8501  0.5972
 4060SOL     OW13620   6.233   3.522   5.535  0.2671  0.0887 -0.4489
 4060SOL    HW113621   6.225   3.585   5.607  1.0981  0.8049 -0.9578
 4060SOL    HW213622   6.169   3.552   5.471  0.4210  0.2075 -0.5464
 4061SOL     OW13623   6.479   6.858  10.162 -0.1403  0.5041  0.0690
 4061SOL    HW113624   6.548   6.903  10.211  2.5329 -0.3210 -2.6130
 4061SOL    HW213625   6.418   6.928  10.137 -0.1533  1.3205  2.1879
 4062SOL     OW13626   2.244   3.313   2.644  0.0411 -0.1330 -0.3098
 4062SOL    HW113627   2.157   3.353   2.637 -0.8323 -2.0120 -1.0684
 4062SOL    HW213628   2.287   3.334   2.561 -0.5910 -1.0852 -0.9035
 4063SOL     OW13629   3.328   6.571  10.992  0.3100  0.2412  0.0613
 4063SOL    HW113630   3.244   6.566  10.948  0.4212  1.7423 -0.3647
 4063SOL    HW213631   3.319   6.514  11.068 -0.6878 -0.5157 -0.6135
 4064SOL     OW13632   7.923   1.945  10.120 -0.2167  1.1472 -0.4040
 4064SOL    HW113633   7.983   1.883  10.159 -0.6138  1.2758  0.4438
 4064SOL    HW213634   7.977   2.021  10.097  0.0769  0.9316 -0.4246
 4065SOL     OW13635   3.049   7.654   8.329 -0.4525 -0.6862  0.3692
 4065SOL    HW113636   3.043   7.558   8.324 -3.0749 -0.6159  0.8431
 4065SOL    HW213637   3.108   7.670   8.403  0.2915 -1.9066  0.0791
 4066SOL     OW13638   7.138   0.766   9.409  0.3587  0.4147  0.1426
 4066SOL    HW113639   7.110   0.702   9.344 -1.0331  1.7334 -0.6300
 4066SOL    HW213640   7.113   0.727   9.493 -1.4955  0.3673 -0.3791
 4067SOL     OW13641   1.939   5.544   8.961 -0.2294  0.0554  0.1659
 4067SOL    HW113642   1.889   5.556   8.880  0.3318 -1.8256 -0.5220
 4067SOL    HW213643   1.877   5.504   9.022 -0.4671  0.8444  0.4478
 4068SOL     OW13644   0.754   6.584   9.229 -0.3556  0.2967  0.1061
 4068SOL    HW113645   0.779   6.650   9.294  1.0020 -0.4042  0.3466
 4068SOL    HW213646   0.742   6.504   9.280  0.9509 -0.3144 -0.4901
 4069SOL     OW13647   3.153   2.474   1.856 -0.6395  0.1923 -0.1616
 4069SOL    HW113648   3.215   2.405   1.879 -0.3326  1.0307  1.6431
 4069SOL    HW213649   3.072   2.428   1.836  0.4397 -0.9114 -2.3694
 4070SOL     OW13650   4.446   4.170   8.439 -0.2491  0.2271  0.2295
 4070SOL    HW113651   4.497   4.198   8.515 -0.5097  2.6079 -0.3945
 4070SOL    HW213652   4.356   4.167   8.470 -0.0688 -1.4823  0.6732
 4071SOL     OW13653   2.419   1.435  11.663  0.0400 -0.2209  0.3217
 4071SOL    HW113654   2.469   1.501  11.616 -2.0457  0.8427 -0.5651
 4071SOL    HW213655   2.483   1.388  11.716  1.8328  1.4005 -0.3158
 4072SOL     OW13656   3.956   0.383   4.549  0.3562 -0.4554  0.1670
 4072SOL    HW113657   3.914   0.309   4.592 -0.8400  2.1437  4.0419
 4072SOL    HW213658   3.884   0.431   4.508  0.9373 -0.6919 -1.1859
 4073SOL     OW13659   5.825   5.147   0.967  0.1517  0.4398  0.5989
 4073SOL    HW113660   5.916   5.135   0.938  0.0020 -0.9690  0.6622
 4073SOL    HW213661   5.793   5.221   0.915  0.6814 -0.4042 -0.9871
 4074SOL     OW13662   2.304   3.924   4.724  0.3455 -0.0023  0.2285
 4074SOL    HW113663   2.322   4.012   4.692  0.3623 -0.2644 -0.5077
 4074SOL    HW213664   2.306   3.932   4.819 -0.7529  1.0155  0.1838
 4075SOL     OW13665   6.798   0.731  11.830  0.0370  0.0363  0.0341
 4075SOL    HW113666   6.774   0.823  11.835  0.5811  0.1893 -0.0814
 4075SOL    HW213667   6.891   0.730  11.849 -0.4887 -0.8116  2.9341
 4076SOL     OW13668   1.152   4.814   4.014  0.5073  0.3500 -0.6891
 4076SOL    HW113669   1.219   4.754   4.048  0.9491  0.7781 -0.7901
 4076SOL    HW213670   1.101   4.761   3.954  0.9409  0.0884 -0.8355
 4077SOL     OW13671   7.769   1.782   5.803  0.4328 -0.1835 -0.3667
 4077SOL    HW113672   7.721   1.804   5.723 -0.6687 -0.6030  0.1540
 4077SOL    HW213673   7.716   1.820   5.874  1.0621 -0.3594  0.2078
 4078SOL     OW13674   6.117   6.869  12.303  0.3359 -0.4158  0.7521
 4078SOL    HW113675   6.071   6.929  12.361  1.2295  0.1431  0.8998
 4078SOL    HW213676   6.129   6.790  12.355 -0.3430 -0.5293  0.7480
 4079SOL     OW13677   3.172   5.166  11.853 -0.0971 -0.3924  0.2762
 4079SOL    HW113678   3.197   5.231  11.788  2.7736 -0.6813  0.9814
 4079SOL    HW213679   3.089   5.199  11.888  0.3605  1.9519 -0.6288
 4080SOL     OW13680   7.050   2.352   8.483 -0.3702 -0.5956  0.3855
 4080SOL    HW113681   6.998   2.347   8.563 -0.9478 -2.1635 -0.0525
 4080SOL    HW213682   7.075   2.444   8.476 -0.1969 -0.4450  2.4236
 4081SOL     OW13683   1.733   3.061  10.503 -0.8027 -0.1394 -0.1204
 4081SOL    HW113684   1.683   3.129  10.548 -1.4359 -0.6560 -0.0242
 4081SOL    HW213685   1.747   2.993  10.569 -0.1723 -0.1080 -0.2144
 4082SOL     OW13686   2.607   7.232   9.708  0.0015 -0.1563  0.2100
 4082SOL    HW113687   2.531   7.249   9.653 -0.1643 -1.2047  0.1031
 4082SOL    HW213688   2.682   7.256   9.654 -0.2410  1.5816  0.5623
 4083SOL     OW13689   2.211   1.543  10.189 -0.5801  0.6530 -0.6275
 4083SOL    HW113690   2.251   1.531  10.103 -0.0207 -2.3870 -0.0596
 4083SOL    HW213691   2.285   1.549  10.249 -0.9349 -0.1508 -0.0864
 4084SOL     OW13692   6.683   6.473   1.649  0.1689  0.2358  0.1100
 4084SOL    HW113693   6.748   6.511   1.590 -0.6489  1.5905  0.0400
 4084SOL    HW213694   6.599   6.491   1.607 -0.3676  0.3549  1.2065
 4085SOL     OW13695   3.122   6.152   0.651 -0.1261 -0.1928 -0.4410
 4085SOL    HW113696   3.131   6.208   0.574  1.1040 -0.0126 -0.1928
 4085SOL    HW213697   3.117   6.213   0.724 -0.4000 -0.3800 -0.3049
 4086SOL     OW13698   3.972   6.938  11.640  0.0519  0.3579  0.9264
 4086SOL    HW113699   3.880   6.955  11.616  0.4273 -0.2656 -1.2409
 4086SOL    HW213700   3.967   6.871  11.707 -1.0941  0.1476  0.6571
 4087SOL     OW13701   6.210   0.307   5.497 -0.2627  0.0390 -0.1713
 4087SOL    HW113702   6.167   0.233   5.540 -0.7622  0.0612 -0.6189
 4087SOL    HW213703   6.262   0.268   5.427  0.0681  0.0527  0.0644
 4088SOL     OW13704   5.173   1.878   1.825  0.0230 -0.0961 -0.6129
 4088SOL    HW113705   5.241   1.940   1.798  2.2165 -2.6473 -1.5084
 4088SOL    HW213706   5.178   1.808   1.759 -2.4300 -1.1622  0.2131
 4089SOL     OW13707   4.122   1.231   0.410  0.2969 -0.2841 -0.0260
 4089SOL    HW113708   4.173   1.295   0.459  0.2600 -0.2932  0.0240
 4089SOL    HW213709   4.161   1.231   0.322 -1.0364  1.3737 -0.6784
 4090SOL     OW13710   4.129   1.857   5.855  0.5552 -0.3827 -0.1393
 4090SOL    HW113711   4.171   1.806   5.786  1.3396  1.7047 -1.3010
 4090SOL    HW213712   4.189   1.930   5.871 -1.5100  1.4221 -0.1761
 4091SOL     OW13713   6.357   1.587   4.900 -0.5316 -0.3644  0.1537
 4091SOL    HW113714   6.440   1.565   4.944 -0.8915  0.5266  1.3449
 4091SOL    HW213715   6.350   1.682   4.909 -1.1480 -0.2916 -0.9355
 4092SOL     OW13716   6.380   1.347   3.261  0.1405  0.7601  0.2805
 4092SOL    HW113717   6.429   1.280   3.308  0.6048  1.4923  0.8687
 4092SOL    HW213718   6.448   1.404   3.224 -0.2292  0.3850 -0.9950
 4093SOL     OW13719   0.146   2.344   8.942  0.0731  0.1077 -0.3811
 4093SOL    HW113720   0.102   2.400   9.006  2.1989  0.6822  0.6924
 4093SOL    HW213721   0.121   2.255   8.967 -0.9148  0.4221 -0.1940
 4094SOL     OW13722   6.822   6.235   8.387 -0.2549  0.4511 -0.0613
 4094SOL    HW113723   6.797   6.272   8.301 -1.9221  2.5935  1.2275
 4094SOL    HW213724   6.862   6.309   8.433  1.1435 -0.8285  0.8510
 4095SOL     OW13725   3.211   2.223   0.219 -0.0156 -0.4732 -0.6559
 4095SOL    HW113726   3.222   2.129   0.210 -2.8157 -0.8964 -0.5676
 4095SOL    HW213727   3.236   2.241   0.309  0.5460 -1.1164 -0.6734
 4096SOL     OW13728   6.046   7.815   9.655 -0.2921 -0.1419 -0.3508
 4096SOL    HW113729   6.112   7.798   9.589  0.9062  2.2224  0.1305
 4096SOL    HW213730   6.094   7.818   9.738 -1.0846  0.8769  0.1039
 4097SOL     OW13731   0.342   1.277   4.512  0.0131  0.6109  0.0080
 4097SOL    HW113732   0.315   1.294   4.602  2.6658  0.4706  0.9338
 4097SOL    HW213733   0.271   1.226   4.474 -0.8570  0.0367  2.2663
 4098SOL     OW13734   0.463   1.239   7.847  0.2144 -0.1040  0.2181
 4098SOL    HW113735   0.464   1.263   7.755 -1.4031 -0.5376  0.0492
 4098SOL    HW213736   0.533   1.175   7.857 -1.2229 -2.0386 -1.3314
 4099SOL     OW13737   5.556   7.321  11.918 -0.0382  0.3204  0.4186
 4099SOL    HW113738   5.536   7.406  11.956 -1.0656  0.0017  0.6092
 4099SOL    HW213739   5.481   7.301  11.862  0.2857 -0.3708  0.2193
 4100SOL     OW13740   7.847   3.423   5.298  0.2129 -0.0823 -0.4906
 4100SOL    HW113741   7.890   3.508   5.314 -1.0865  0.3399  1.0037
 4100SOL    HW213742   7.816   3.396   5.384 -1.0329 -1.1948 -1.2618
 4101SOL     OW13743   1.063   3.213   4.622 -0.0579 -0.5973 -0.2626
 4101SOL    HW113744   1.084   3.236   4.532 -0.3507 -1.1198 -0.4696
 4101SOL    HW213745   0.979   3.256   4.639  1.2314  1.7638  0.6722
 4102SOL     OW13746   5.430   4.416   7.237  0.8462 -0.1651  0.2569
 4102SOL    HW113747   5.371   4.421   7.312  1.0447 -0.8820  0.4668
 4102SOL    HW213748   5.456   4.507   7.221 -2.4861  0.6419 -1.6204
 4103SOL     OW13749   1.529   6.412   2.547 -0.3751  0.6350 -0.2473
 4103SOL    HW113750   1.592   6.363   2.495  1.1249  2.0767  0.1309
 4103SOL    HW213751   1.565   6.411   2.636  0.5506  3.6010 -0.4808
 4104SOL     OW13752   4.825   1.999  10.490 -0.4197 -0.1881  0.4016
 4104SOL    HW113753   4.832   1.904  10.482 -1.7162 -0.1850 -1.7119
 4104SOL    HW213754   4.734   2.018  10.466 -0.3718  1.5467  1.4317
 4105SOL     OW13755   3.664   5.412   3.924 -0.0917 -0.5873  0.0373
 4105SOL    HW113756   3.581   5.386   3.886  0.2917 -0.6853 -0.7691
 4105SOL    HW213757   3.663   5.378   4.013 -0.8829 -0.6378  0.0096
 4106SOL     OW13758   1.324   7.359   6.720  0.5329 -0.0044  0.0770
 4106SOL    HW113759   1.248   7.346   6.663 -0.0737 -0.1798  0.9119
 4106SOL    HW213760   1.367   7.274   6.723  0.3655 -0.0858  0.1670
 4107SOL     OW13761   7.067   3.323  12.431  0.3392  0.2527  0.1185
 4107SOL    HW113762   6.976   3.343  12.405 -0.2597 -0.0933  1.8301
 4107SOL    HW213763   7.079   3.231  12.407  0.6016  0.5739 -1.0379
 4108SOL     OW13764   1.313   1.515  10.227  0.2020  0.6410  0.4179
 4108SOL    HW113765   1.319   1.610  10.239 -0.0446  0.9149 -1.4116
 4108SOL    HW213766   1.323   1.501  10.133  0.7465 -1.2074  0.6976
 4109SOL     OW13767   5.858   6.889   1.904 -0.1415 -0.3149  0.6387
 4109SOL    HW113768   5.846   6.971   1.856 -1.1919 -0.3987  0.7470
 4109SOL    HW213769   5.951   6.868   1.891  0.5566  1.6847  1.9105
 4110SOL     OW13770   1.912   1.747   2.821 -0.3223  0.5784  0.5601
 4110SOL    HW113771   1.964   1.827   2.835  0.1455  0.3107  0.3746
 4110SOL    HW213772   1.930   1.723   2.731 -0.4467  0.2463  0.6242
 4111SOL     OW13773   2.970   6.360  12.277  0.0216 -0.0214  0.3168
 4111SOL    HW113774   3.008   6.277  12.248 -0.5953  0.2245 -1.3095
 4111SOL    HW213775   2.939   6.402  12.197  0.2941  1.7902  1.0992
 4112SOL     OW13776   6.667   3.270   2.386 -0.4709  0.1480  0.3204
 4112SOL    HW113777   6.602   3.210   2.351  0.0104 -0.2928  0.1689
 4112SOL    HW213778   6.741   3.264   2.326  0.5242 -0.9228  1.5941
 4113SOL     OW13779   6.190   6.170   4.973  0.2501  0.4795  0.1911
 4113SOL    HW113780   6.219   6.191   5.061  1.1678 -0.6190  0.1585
 4113SOL    HW213781   6.095   6.161   4.981  0.1196  1.9264  0.7272
 4114SOL     OW13782   5.575   1.101   6.372  0.0258  0.2144  0.0748
 4114SOL    HW113783   5.588   1.172   6.310  0.1274  0.3042  0.1987
 4114SOL    HW213784   5.639   1.117   6.442  1.0761 -0.8313 -0.6140
 4115SOL     OW13785   2.292   0.670   4.252  0.1465  0.1131  0.3812
 4115SOL    HW113786   2.309   0.670   4.346  1.5749  2.1422  0.1969
 4115SOL    HW213787   2.378   0.686   4.212 -0.6882  1.0583 -1.1590
 4116SOL     OW13788   0.917   3.554   6.290  0.0062 -0.1219 -0.0026
 4116SOL    HW113789   0.969   3.495   6.344  0.1816 -1.6790 -1.7810
 4116SOL    HW213790   0.869   3.608   6.352  1.4326 -0.7196  1.6779
 4117SOL     OW13791   2.064   3.523   7.008 -0.0038 -0.1774 -0.3302
 4117SOL    HW113792   2.141   3.553   6.960  0.4380 -1.7633 -0.6837
 4117SOL    HW213793   2.096   3.504   7.096  0.0066 -0.7316 -0.4460
 4118SOL     OW13794   6.251   1.104   0.656  0.0157 -0.5362 -0.4122
 4118SOL    HW113795   6.233   1.198   0.658  1.3361 -0.2362 -1.2528
 4118SOL    HW213796   6.222   1.076   0.569 -0.2843 -0.8888 -0.1995
 4119SOL     OW13797   1.330   1.159   3.262  0.3289  0.5266 -0.0565
 4119SOL    HW113798   1.254   1.216   3.246 -0.0149  0.8022  2.2199
 4119SOL    HW213799   1.292   1.074   3.283  0.7998 -0.1644 -1.7820
 4120SOL     OW13800   3.928   5.411   2.495  0.0153  0.5690  0.1078
 4120SOL    HW113801   3.838   5.430   2.523 -0.1715  0.3038 -0.2949
 4120SOL    HW213802   3.923   5.321   2.461  0.0634  1.1276 -1.4571
 4121SOL     OW13803   6.822   2.088   1.079  0.6503 -0.0515 -0.0194
 4121SOL    HW113804   6.877   2.166   1.072 -0.0533  0.3451 -1.4536
 4121SOL    HW213805   6.831   2.045   0.993 -2.7350  1.0477 -1.0768
 4122SOL     OW13806   2.199   7.923   8.013 -0.2209  0.0667 -0.3360
 4122SOL    HW113807   2.191   7.828   8.024  1.7305 -0.0346  0.4677
 4122SOL    HW213808   2.122   7.947   7.961  0.2113 -2.2169 -2.1898
 4123SOL     OW13809   4.775   5.659   7.017  0.1938 -0.0838 -0.3974
 4123SOL    HW113810   4.860   5.693   7.045 -0.3046  0.1233  0.9315
 4123SOL    HW213811   4.785   5.564   7.018  0.4949 -0.0518 -0.5131
 4124SOL     OW13812   2.810   5.099  12.137 -0.4631  0.2542 -0.1314
 4124SOL    HW113813   2.810   5.154  12.058 -2.1507 -0.0303 -0.3505
 4124SOL    HW213814   2.801   5.161  12.209  0.7654  0.4875 -0.1465
 4125SOL     OW13815   5.745   0.452  10.808 -0.6264 -0.1523 -0.0997
 4125SOL    HW113816   5.817   0.447  10.746 -0.4462 -3.4961  0.1755
 4125SOL    HW213817   5.787   0.447  10.894 -1.0524  1.2672  0.2196
 4126SOL     OW13818   0.163   7.623   4.194  0.1694  0.3560  0.1809
 4126SOL    HW113819   0.145   7.649   4.284 -1.7898  1.4861 -0.4715
 4126SOL    HW213820   0.109   7.681   4.141  2.2096  0.5493 -1.8218
 4127SOL     OW13821   0.975   4.038   2.388 -0.0532  0.0801 -0.3600
 4127SOL    HW113822   0.992   3.944   2.395 -0.5564  0.0544  0.6169
 4127SOL    HW213823   1.033   4.067   2.317  1.4505 -0.6404  0.5207
 4128SOL     OW13824   5.509   4.322  10.013  0.0657 -0.1859 -0.0234
 4128SOL    HW113825   5.452   4.275   9.952  0.2027 -1.3478  0.6985
 4128SOL    HW213826   5.595   4.320   9.972  0.3406 -1.7192  0.5450
 4129SOL     OW13827   6.305   7.205   8.499  0.7468  0.0093  0.0076
 4129SOL    HW113828   6.331   7.114   8.514  0.3938 -0.1141 -0.1355
 4129SOL    HW213829   6.371   7.240   8.439  0.2042 -0.5031 -0.9035
 4130SOL     OW13830   3.222   1.156   8.028  0.3789 -0.2141 -0.2184
 4130SOL    HW113831   3.148   1.117   7.981  0.4056  0.3243 -0.7180
 4130SOL    HW213832   3.242   1.093   8.097 -1.1229  0.0383  0.4994
 4131SOL     OW13833   3.846   6.014  10.994 -0.3641  0.4313 -0.4255
 4131SOL    HW113834   3.779   5.995  10.928 -1.1026  1.0469  0.1130
 4131SOL    HW213835   3.803   6.077  11.052  0.7463  0.9499 -0.1499
 4132SOL     OW13836   6.298   5.532   6.555  0.8928  0.1044  0.0578
 4132SOL    HW113837   6.258   5.606   6.509 -0.3695 -0.5248  0.1069
 4132SOL    HW213838   6.345   5.484   6.487  0.5872  0.2113 -0.2310
 4133SOL     OW13839   1.563   4.442   1.457 -0.0611 -0.2739 -0.4056
 4133SOL    HW113840   1.585   4.501   1.385  1.7928  2.2587  2.0692
 4133SOL    HW213841   1.491   4.486   1.503  0.4117 -0.6230  0.6938
 4134SOL     OW13842   2.865   3.816   4.214  0.1528  0.1708 -0.0715
 4134SOL    HW113843   2.875   3.904   4.178  0.4342 -0.5651 -1.9179
 4134SOL    HW213844   2.788   3.822   4.271  1.0776  1.9526  1.0621
 4135SOL     OW13845   7.865   2.907   2.295  0.1403  0.2114 -0.1627
 4135SOL    HW113846   7.944   2.950   2.262  1.0127  1.9732  3.6849
 4135SOL    HW213847   7.793   2.958   2.259  0.8299  0.2614 -1.5343
 4136SOL     OW13848   5.410   0.969   0.942 -0.6587 -0.2173 -0.1535
 4136SOL    HW113849   5.464   1.048   0.946 -1.5793  0.3850  1.0965
 4136SOL    HW213850   5.377   0.967   0.852 -0.7660  0.9255 -0.1562
 4137SOL     OW13851   3.364   4.576   3.297 -0.3016 -0.3399 -0.0625
 4137SOL    HW113852   3.449   4.576   3.341  1.0791  2.4478 -2.3696
 4137SOL    HW213853   3.302   4.604   3.364  0.7473 -1.4077  1.4058
 4138SOL     OW13854   4.000   5.383   3.839  0.1101  0.4047 -0.1641
 4138SOL    HW113855   4.062   5.406   3.770  0.1269  0.8628 -0.0012
 4138SOL    HW213856   4.053   5.378   3.918 -0.0246  0.5852 -0.0622
 4139SOL     OW13857   2.417   5.266   5.992 -0.2233 -0.7651  0.2260
 4139SOL    HW113858   2.345   5.261   6.055 -1.0131  0.5190 -0.5305
 4139SOL    HW213859   2.486   5.314   6.038 -0.8783  0.3597  0.0789
 4140SOL     OW13860   2.931   0.797   7.889 -0.2159 -0.8079 -0.2687
 4140SOL    HW113861   2.901   0.740   7.960  0.2943 -0.8999 -0.1279
 4140SOL    HW213862   2.880   0.769   7.813 -0.5865 -0.8742  0.0008
 4141SOL     OW13863   2.437   3.689   5.042 -0.4345  0.3556 -0.1733
 4141SOL    HW113864   2.488   3.664   4.965 -0.1582  1.3330 -0.3298
 4141SOL    HW213865   2.398   3.773   5.018 -0.9960  0.2836  0.4630
 4142SOL     OW13866   7.392   4.199   6.879 -0.4281 -0.7683 -0.8758
 4142SOL    HW113867   7.419   4.119   6.925  0.0764  0.6584  1.4832
 4142SOL    HW213868   7.474   4.235   6.845 -0.8260 -1.9618 -3.3555
 4143SOL     OW13869   0.862   7.895   8.080  0.1670 -0.6341  0.0367
 4143SOL    HW113870   0.915   7.820   8.106  1.2549 -0.2912 -1.1288
 4143SOL    HW213871   0.846   7.943   8.162  1.8733 -0.6086  0.3791
 4144SOL     OW13872   4.078   7.313   4.159 -0.1690 -0.1522  0.0951
 4144SOL    HW113873   4.158   7.365   4.167  0.7825 -1.7814  1.8304
 4144SOL    HW213874   4.103   7.241   4.101  0.0726 -1.4025  1.7038
 4145SOL     OW13875   7.376   4.906   9.965 -0.0935  0.0974 -0.0205
 4145SOL    HW113876   7.417   4.953   9.892  2.3446 -1.0713  0.5095
 4145SOL    HW213877   7.367   4.972  10.034 -0.3344  0.6736 -0.5916
 4146SOL     OW13878   4.467   1.291   1.445 -0.1046 -0.3273  0.1278
 4146SOL    HW113879   4.396   1.338   1.402  0.0571  0.0684  0.2863
 4146SOL    HW213880   4.534   1.358   1.461  0.0741 -0.5853  0.4804
 4147SOL     OW13881   5.915   1.409  11.766  0.7619  0.1416  0.4006
 4147SOL    HW113882   5.971   1.413  11.843 -1.7944 -0.1198  2.4036
 4147SOL    HW213883   5.899   1.501  11.743  2.8710  0.2400 -0.9813
 4148SOL     OW13884   5.109   6.731   0.238  0.0803 -0.2392  0.4946
 4148SOL    HW113885   5.185   6.762   0.190 -1.1629  0.1354 -1.3278
 4148SOL    HW213886   5.073   6.808   0.281 -1.1854  0.3430 -1.4590
 4149SOL     OW13887   2.204   6.384   8.187  0.1581 -0.0714  0.1654
 4149SOL    HW113888   2.289   6.388   8.142 -0.1735  0.9972 -0.3907
 4149SOL    HW213889   2.154   6.320   8.137  0.4807 -0.3795  0.2296
 4150SOL     OW13890   4.767   5.804   1.530  0.5025 -0.0015 -0.3285
 4150SOL    HW113891   4.677   5.838   1.531 -0.4640 -2.3576  0.0463
 4150SOL    HW213892   4.770   5.746   1.454  1.6324 -0.1582 -0.1827
 4151SOL     OW13893   4.531   0.544   5.068 -0.1631 -0.1920  0.2452
 4151SOL    HW113894   4.554   0.521   5.158  1.9604 -0.8898 -0.4110
 4151SOL    HW213895   4.467   0.478   5.042 -1.3958  0.4724  1.4492
 4152SOL     OW13896   3.991   6.261   9.173  0.1329  0.3790 -0.1310
 4152SOL    HW113897   3.980   6.343   9.125  0.2373  1.4535  1.6047
 4152SOL    HW213898   4.056   6.213   9.122  1.2000  2.0173 -0.4033
 4153SOL     OW13899   4.442   2.382   8.881  0.3612  0.0567  0.2869
 4153SOL    HW113900   4.426   2.447   8.949 -1.1387 -0.6488  0.6445
 4153SOL    HW213901   4.392   2.413   8.805 -1.7357 -1.4401  0.9661
 4154SOL     OW13902   5.144   1.455   8.055 -0.5049 -0.5374  0.1942
 4154SOL    HW113903   5.162   1.404   8.134 -1.6689 -1.8877 -0.3625
 4154SOL    HW213904   5.048   1.457   8.049 -0.5213  1.8581  0.2431
 4155SOL     OW13905   1.770   2.382   8.930 -0.2400 -0.4402  0.0279
 4155SOL    HW113906   1.826   2.430   8.869 -0.2937  1.0084  1.0503
 4155SOL    HW213907   1.829   2.354   9.000 -0.7898  1.6057  1.4107
 4156SOL     OW13908   0.535   2.244   2.076  0.6345  0.2408 -0.3641
 4156SOL    HW113909   0.488   2.291   2.145  1.4706  1.0681 -0.3408
 4156SOL    HW213910   0.549   2.156   2.113 -1.3717 -0.2242 -0.6020
 4157SOL     OW13911   1.104   2.757   4.267  0.8047 -0.1669  0.3211
 4157SOL    HW113912   1.097   2.736   4.174 -0.1716  1.1990  0.0442
 4157SOL    HW213913   1.103   2.673   4.311 -4.1096 -0.9382 -0.6255
 4158SOL     OW13914   4.860   5.054  10.909  0.1689 -0.1875 -0.2774
 4158SOL    HW113915   4.928   5.116  10.934 -0.7064  0.7258 -0.1278
 4158SOL    HW213916   4.878   4.976  10.961  1.6552 -0.3132 -0.9344
 4159SOL     OW13917   1.652   7.809  10.125  0.2510  0.6813 -0.2282
 4159SOL    HW113918   1.669   7.817  10.031  0.1766 -0.3385 -0.3460
 4159SOL    HW213919   1.581   7.744  10.131  0.6683  0.2792  0.5542
 4160SOL     OW13920   0.674   7.614  12.013  0.0060 -0.0447  0.5817
 4160SOL    HW113921   0.609   7.544  12.023 -1.4734  1.3630  1.1881
 4160SOL    HW213922   0.723   7.614  12.095  0.2898 -0.6033  0.4224
 4161SOL     OW13923   5.041   1.156   6.051  0.2082  0.5345  0.1379
 4161SOL    HW113924   5.120   1.190   6.009  0.8611  0.2357  1.0870
 4161SOL    HW213925   5.073   1.090   6.112 -0.9209 -0.7561 -0.6286
 4162SOL     OW13926   1.459   1.714   9.075  0.6186  0.1586  0.0212
 4162SOL    HW113927   1.459   1.651   9.147 -0.0706  1.6831  1.4028
 4162SOL    HW213928   1.417   1.667   9.003  0.1431 -0.9698  0.9923
 4163SOL     OW13929   5.765   1.467   3.576 -0.4158  0.5842 -0.8227
 4163SOL    HW113930   5.807   1.495   3.657 -0.4792 -0.2607 -0.4885
 4163SOL    HW213931   5.746   1.549   3.529 -1.1592  1.1525  0.4009
 4164SOL     OW13932   1.328   2.551   2.233  0.2056  0.4600 -0.5905
 4164SOL    HW113933   1.298   2.462   2.216  2.0408 -0.4063  0.4325
 4164SOL    HW213934   1.405   2.561   2.177  0.9368  0.8244  0.4487
 4165SOL     OW13935   6.936   5.869   2.510  0.5726  0.4392 -0.2171
 4165SOL    HW113936   6.854   5.826   2.536  0.8090  0.4885  0.6410
 4165SOL    HW213937   6.984   5.801   2.462  0.0356  0.4121 -0.7300
 4166SOL     OW13938   0.998   1.572   4.266  0.0511 -0.0616  0.6488
 4166SOL    HW113939   1.073   1.519   4.241 -0.7684 -1.1889  0.4927
 4166SOL    HW213940   0.983   1.630   4.191  0.2617 -0.4135  0.3332
 4167SOL     OW13941   7.362   0.832   5.093  0.1588  0.0676  0.2858
 4167SOL    HW113942   7.428   0.863   5.031  1.7778 -2.4919  0.5546
 4167SOL    HW213943   7.334   0.911   5.139 -0.0652  1.8458 -2.6473
 4168SOL     OW13944   5.997   7.267   7.915  0.1662 -0.1786  0.3577
 4168SOL    HW113945   5.917   7.320   7.918  0.9561  1.0285  0.7698
 4168SOL    HW213946   6.003   7.228   8.002  1.1046  1.4286  1.0598
 4169SOL     OW13947   4.799   5.413  10.173  0.3744  0.3055  0.4313
 4169SOL    HW113948   4.797   5.407  10.269  0.6038 -1.6113  0.3720
 4169SOL    HW213949   4.725   5.469  10.151 -0.3728 -0.1218  1.7045
 4170SOL     OW13950   2.031   5.736  10.051  0.3948  0.3109 -0.2020
 4170SOL    HW113951   2.112   5.687  10.065  0.8809  1.3548  0.8258
 4170SOL    HW213952   1.994   5.700   9.970  3.0522  1.3493 -1.9926
 4171SOL     OW13953   5.909   6.132   0.912 -0.3625  0.6813 -0.1779
 4171SOL    HW113954   5.853   6.146   0.989  1.3547  1.4793  0.9911
 4171SOL    HW213955   5.858   6.167   0.839 -2.5269 -1.0999  0.3549
 4172SOL     OW13956   3.019   3.754  10.161 -0.1820 -0.3892  0.0504
 4172SOL    HW113957   3.029   3.659  10.163  0.9495 -0.3526 -1.7276
 4172SOL    HW213958   2.933   3.770  10.200  0.3927 -1.9552  2.1345
 4173SOL     OW13959   0.619   7.311   8.913  0.1286 -0.3713 -0.5077
 4173SOL    HW113960   0.702   7.272   8.939  1.1278  0.7451 -1.8499
 4173SOL    HW213961   0.554   7.270   8.969  1.6698 -0.8020  1.0303
 4174SOL     OW13962   4.172   5.246   9.942  0.4592 -0.3421 -0.2235
 4174SOL    HW113963   4.077   5.248   9.955  0.3483  0.3864 -1.0570
 4174SOL    HW213964   4.187   5.171   9.885  0.5694 -1.4075  1.1631
 4175SOL     OW13965   5.716   7.112  10.130  0.3837 -0.2097 -0.3589
 4175SOL    HW113966   5.770   7.066  10.066 -0.4519 -1.4294 -0.2120
 4175SOL    HW213967   5.656   7.165  10.077 -0.0675 -0.9407 -0.5987
 4176SOL     OW13968   7.696   5.408  10.334  0.0383  0.1567  0.4898
 4176SOL    HW113969   7.722   5.318  10.314  0.4165  0.6429 -1.4579
 4176SOL    HW213970   7.774   5.461  10.315 -0.5205  1.0090  0.4731
 4177SOL     OW13971   3.982   1.360  12.041  0.8036 -0.1235 -0.5049
 4177SOL    HW113972   4.010   1.449  12.057  0.6860  0.1850 -1.8841
 4177SOL    HW213973   3.906   1.369  11.983 -0.2738 -1.0537  0.6878
 4178SOL     OW13974   6.330   5.134   2.506 -0.1719  0.2753  0.0721
 4178SOL    HW113975   6.272   5.159   2.434 -0.5867 -2.0489 -0.4707
 4178SOL    HW213976   6.289   5.057   2.544  0.8094  0.6092  1.9023
 4179SOL     OW13977   4.842   1.430   4.982 -0.1832 -0.5274  0.6362
 4179SOL    HW113978   4.868   1.386   4.901 -0.2449  0.3488  0.1251
 4179SOL    HW213979   4.850   1.363   5.049  1.5843 -0.8031  0.1924
 4180SOL     OW13980   5.645   7.621   4.806 -0.4538 -0.4842  0.7691
 4180SOL    HW113981   5.611   7.591   4.890  1.5026 -1.4595  1.2727
 4180SOL    HW213982   5.703   7.694   4.828 -0.1656 -0.5510  0.2632
 4181SOL     OW13983   6.221   2.614   0.532  0.5198  0.1009 -0.0873
 4181SOL    HW113984   6.236   2.701   0.494  1.0038 -0.3058 -0.8273
 4181SOL    HW213985   6.129   2.616   0.559 -0.3984 -0.2200 -2.9153
 4182SOL     OW13986   7.499   6.502   2.270 -0.1280 -0.1246 -0.0491
 4182SOL    HW113987   7.560   6.432   2.292  0.1824  0.1977  0.1098
 4182SOL    HW213988   7.490   6.497   2.175  0.6565  0.2602 -0.1408
 4183SOL     OW13989   0.204   4.229  10.140  0.5821 -0.2734 -0.0331
 4183SOL    HW113990   0.247   4.143  10.135  1.0193 -0.2681  2.3863
 4183SOL    HW213991   0.123   4.212  10.188 -0.8912  0.1945 -2.2299
 4184SOL     OW13992   7.355   6.092   9.772 -0.5620  0.0770  0.4840
 4184SOL    HW113993   7.403   6.033   9.714 -1.7198 -0.7217  0.3247
 4184SOL    HW213994   7.263   6.070   9.759 -0.9741  1.3743  1.0176
 4185SOL     OW13995   2.898   1.518   5.101  0.8616 -0.2245  0.0150
 4185SOL    HW113996   2.892   1.524   5.006 -0.0338  0.1100  0.0885
 4185SOL    HW213997   2.872   1.428   5.121 -1.0642  0.3140  0.0908
 4186SOL     OW13998   4.556   7.958   2.325 -0.8175  0.3038 -0.0367
 4186SOL    HW113999   4.643   7.933   2.358 -0.1538  1.5533 -0.7700
 4186SOL    HW214000   4.560   7.940   2.231 -0.5098  2.5216 -0.4985
 4187SOL     OW14001   7.505   4.836  11.549 -0.8734 -0.3014  0.7393
 4187SOL    HW114002   7.458   4.887  11.616 -0.8642  1.2667 -0.3933
 4187SOL    HW214003   7.450   4.844  11.471  0.4365  0.1917 -0.1703
 4188SOL     OW14004   5.927   3.727   5.998 -0.0670  0.0594 -0.5182
 4188SOL    HW114005   5.842   3.759   6.028  1.3138  2.9083  0.7500
 4188SOL    HW214006   5.937   3.762   5.910 -0.4302 -0.7895 -0.9059
 4189SOL     OW14007   6.248   7.538   9.868  0.0669 -0.3195 -0.9123
 4189SOL    HW114008   6.233   7.517   9.775 -0.6406 -0.7466 -0.7120
 4189SOL    HW214009   6.228   7.631   9.875  0.8150 -0.1216 -1.3251
 4190SOL     OW14010   1.209   0.603   7.678 -0.5137 -0.2108  0.8563
 4190SOL    HW114011   1.251   0.542   7.738  0.4558 -1.5965 -1.1287
 4190SOL    HW214012   1.215   0.688   7.722  1.5559 -0.9002  2.0457
 4191SOL     OW14013   4.250   5.276   6.647 -0.4682 -0.2018 -0.3403
 4191SOL    HW114014   4.319   5.341   6.641 -1.6714  1.2981  0.9435
 4191SOL    HW214015   4.295   5.192   6.647  1.1817  0.6378 -1.3917
 4192SOL     OW14016   6.628   5.913   7.976  0.2819 -0.3211  0.4070
 4192SOL    HW114017   6.628   5.820   7.953 -1.1829 -0.3563  0.4154
 4192SOL    HW214018   6.668   5.957   7.901 -1.6721 -0.7154 -0.9390
 4193SOL     OW14019   1.311   4.103   0.326 -0.6586 -0.8117 -0.3548
 4193SOL    HW114020   1.286   4.163   0.396 -0.0703 -2.3744  1.2657
 4193SOL    HW214021   1.407   4.100   0.330 -0.5305 -0.0959 -1.9873
 4194SOL     OW14022   1.920   6.411  10.855  0.3562 -0.1332  0.1287
 4194SOL    HW114023   1.846   6.362  10.889  0.9680  0.1978  2.0514
 4194SOL    HW214024   1.966   6.350  10.798 -0.1515 -1.0668  0.7030
 4195SOL     OW14025   0.119   7.501   4.856  0.3720  0.1836 -0.1269
 4195SOL    HW114026   0.132   7.591   4.826  0.1197  0.2838  0.0592
 4195SOL    HW214027   0.109   7.450   4.776  1.3071  0.1930 -0.2610
 4196SOL     OW14028   5.240   1.469   8.737  0.5776  0.5102 -0.2188
 4196SOL    HW114029   5.191   1.395   8.774  0.0857  0.2567 -1.3316
 4196SOL    HW214030   5.181   1.507   8.672  0.8213  1.9046  0.3409
 4197SOL     OW14031   4.471   4.760   2.418 -0.2686  0.1033  0.6050
 4197SOL    HW114032   4.537   4.690   2.421 -1.3703 -1.0469 -0.9468
 4197SOL    HW214033   4.480   4.803   2.503  0.9869 -1.4051  1.3034
 4198SOL     OW14034   3.218   3.215  10.360 -0.0434 -0.2061  0.4963
 4198SOL    HW114035   3.311   3.195  10.371  0.0226 -0.7473 -0.8261
 4198SOL    HW214036   3.212   3.252  10.271 -0.9724  0.5890  0.8683
 4199SOL     OW14037   6.949   3.539   9.863 -0.2999 -0.3345 -0.6441
 4199SOL    HW114038   6.957   3.619   9.812 -0.4778  0.5036  0.6126
 4199SOL    HW214039   7.022   3.485   9.833  0.4747  0.7393 -0.7501
 4200SOL     OW14040   7.267   7.899   8.098 -0.0249  0.7823  0.2370
 4200SOL    HW114041   7.346   7.882   8.150 -0.1712  0.0112  0.2211
 4200SOL    HW214042   7.207   7.943   8.159  1.0133  2.9204 -0.2100
 4201SOL     OW14043   0.160   0.710   7.138  0.0246 -0.3305  0.1754
 4201SOL    HW114044   0.192   0.620   7.138 -0.1667 -0.4114 -0.8017
 4201SOL    HW214045   0.075   0.705   7.182  0.3401 -0.4944  0.7788
 4202SOL     OW14046   2.667   5.116   1.344 -0.6793 -0.6892 -0.0972
 4202SOL    HW114047   2.681   5.052   1.414  0.7259  0.0649  0.3472
 4202SOL    HW214048   2.702   5.074   1.266  0.8184 -0.2651  0.3103
 4203SOL     OW14049   2.154   4.754  12.319  0.3340  0.0705  0.4535
 4203SOL    HW114050   2.070   4.759  12.272  0.3839 -0.0515  0.3514
 4203SOL    HW214051   2.208   4.821  12.277 -0.0866  0.9593  1.2780
 4204SOL     OW14052   5.287   7.821   9.715 -0.1791 -0.2934  0.2245
 4204SOL    HW114053   5.375   7.807   9.681 -0.6541  2.2749 -2.4357
 4204SOL    HW214054   5.293   7.795   9.807  3.9067  1.6045  0.7015
 4205SOL     OW14055   5.242   7.714   2.632  0.0643 -0.2088 -0.0004
 4205SOL    HW114056   5.235   7.792   2.577 -1.0485  0.4529  1.0138
 4205SOL    HW214057   5.155   7.675   2.628  0.5620 -1.3090 -0.3450
 4206SOL     OW14058   4.799   5.147   4.312  0.2305  0.1237 -0.3065
 4206SOL    HW114059   4.728   5.211   4.303  0.9631  1.1101  0.6413
 4206SOL    HW214060   4.815   5.143   4.406 -0.1192 -1.8586 -0.2825
 4207SOL     OW14061   3.698   6.736   4.615 -0.0230 -0.2675 -0.4183
 4207SOL    HW114062   3.661   6.652   4.642 -1.1045  0.1453 -0.5532
 4207SOL    HW214063   3.772   6.750   4.675 -0.7312 -0.6312  0.5760
 4208SOL     OW14064   1.231   5.210   6.305 -0.1764  0.0260 -0.1193
 4208SOL    HW114065   1.251   5.129   6.259 -0.3084 -1.6646  2.5594
 4208SOL    HW214066   1.183   5.263   6.241 -1.3993 -2.6070 -1.5565
 4209SOL     OW14067   0.669   3.263   9.825 -0.5795  0.6928  0.0853
 4209SOL    HW114068   0.642   3.204   9.755  0.2502 -0.6280  0.8488
 4209SOL    HW214069   0.614   3.239   9.899 -0.3029  0.9477  0.3758
 4210SOL     OW14070   0.446   3.988   5.652 -0.0229  0.2399  0.1974
 4210SOL    HW114071   0.518   3.925   5.655  0.1130  0.4176  1.0161
 4210SOL    HW214072   0.369   3.937   5.677 -0.2961 -0.0813 -1.2320
 4211SOL     OW14073   1.194   5.138   6.931  0.8966  0.5122 -0.8491
 4211SOL    HW114074   1.213   5.167   7.020  0.5164  2.0392 -1.2237
 4211SOL    HW214075   1.100   5.154   6.921  0.7774 -0.4190 -1.2570
 4212SOL     OW14076   1.968   5.467  12.291 -0.1292  0.5239 -0.4701
 4212SOL    HW114077   1.982   5.461  12.196  2.2673  0.0205 -0.1547
 4212SOL    HW214078   1.968   5.376  12.321  1.3912  0.7352  0.2506
 4213SOL     OW14079   3.163   0.009   0.104 -0.6747 -0.3150 -0.0849
 4213SOL    HW114080   3.231   0.069   0.071  0.1755 -1.7228 -1.0226
 4213SOL    HW214081   3.082   0.042   0.066 -0.5422  1.3404  0.9636
 4214SOL     OW14082   5.640   0.467   5.936  0.0493 -0.6332  0.6440
 4214SOL    HW114083   5.646   0.556   5.972  1.7772 -0.1933 -0.6023
 4214SOL    HW214084   5.727   0.450   5.900 -0.7274 -2.2136 -0.5967
 4215SOL     OW14085   4.258   6.361   5.589 -0.0669 -0.3973  0.0247
 4215SOL    HW114086   4.181   6.381   5.642 -0.3255  0.3981 -0.6266
 4215SOL    HW214087   4.227   6.364   5.499  1.2097  2.5295 -0.4271
 4216SOL     OW14088   0.502   4.257   1.401 -0.2552  0.2606  0.1951
 4216SOL    HW114089   0.437   4.192   1.428 -0.4209  0.0881 -0.6127
 4216SOL    HW214090   0.574   4.246   1.463 -0.6232 -0.1407  0.5577
 4217SOL     OW14091   5.403   1.164  10.523  0.3839  0.2573  0.1023
 4217SOL    HW114092   5.413   1.257  10.502 -0.9482  0.1002 -1.4087
 4217SOL    HW214093   5.321   1.139  10.481  1.2670 -1.8683 -0.4913
 4218SOL     OW14094   5.453   1.958   3.016 -0.2515 -0.3786  0.0366
 4218SOL    HW114095   5.399   2.027   2.977  0.9935  1.7020  1.7488
 4218SOL    HW214096   5.391   1.903   3.064 -1.0322  1.3109  1.0500
 4219SOL     OW14097   2.237   1.132   2.934 -0.2889 -0.2757  0.1921
 4219SOL    HW114098   2.294   1.119   2.858 -0.7874  0.3012 -0.2973
 4219SOL    HW214099   2.288   1.186   2.994 -0.4157  0.4930 -0.3732
 4220SOL     OW14100   1.578   1.480   8.695  0.2995 -0.6314 -0.1684
 4220SOL    HW114101   1.586   1.574   8.713  0.7389 -0.7899  0.4795
 4220SOL    HW214102   1.668   1.451   8.678  0.7718 -1.6537  3.3258
 4221SOL     OW14103   4.130   2.609   0.901  0.1671 -0.7423 -0.4910
 4221SOL    HW114104   4.169   2.697   0.906 -0.9581 -0.2674  0.3743
 4221SOL    HW214105   4.109   2.587   0.991 -1.4735 -1.0024 -0.9052
 4222SOL     OW14106   6.977   2.236   7.523  0.1888 -0.0779  0.0040
 4222SOL    HW114107   7.052   2.225   7.581 -0.3834  0.3341  0.8266
 4222SOL    HW214108   6.961   2.148   7.489  0.3846 -0.3675  0.6447
 4223SOL     OW14109   5.783   3.471  12.235  0.4143  0.1887  0.3352
 4223SOL    HW114110   5.842   3.547  12.235 -1.5799  1.8553  1.9912
 4223SOL    HW214111   5.762   3.457  12.327  0.2937 -2.0880  0.0106
 4224SOL     OW14112   0.373   2.840   0.533 -0.1974 -0.3612 -0.0132
 4224SOL    HW114113   0.360   2.745   0.543  0.0498 -0.4605 -0.5510
 4224SOL    HW214114   0.462   2.848   0.500 -0.5282 -0.0083 -0.8658
 4225SOL     OW14115   0.019   3.121   8.580 -0.5431 -0.0694 -0.0598
 4225SOL    HW114116   0.073   3.108   8.503 -1.0593 -3.0572 -0.0039
 4225SOL    HW214117  -0.066   3.150   8.546 -0.7699 -1.3735 -0.6246
 4226SOL     OW14118   7.511   3.702   0.557 -0.5424 -0.0189  0.4793
 4226SOL    HW114119   7.497   3.758   0.480  0.5177 -1.2831 -0.6944
 4226SOL    HW214120   7.431   3.649   0.563 -0.4057 -0.3079 -0.1210
 4227SOL     OW14121   5.234   7.756   6.526  0.2998  0.5185 -0.0811
 4227SOL    HW114122   5.240   7.851   6.538  2.6800  0.1577  2.7170
 4227SOL    HW214123   5.188   7.725   6.604  1.0456 -0.7505 -0.1213
 4228SOL     OW14124   0.297   5.096   1.486  0.3299 -0.2877 -0.3702
 4228SOL    HW114125   0.350   5.175   1.494 -0.5529  0.3654 -0.7606
 4228SOL    HW214126   0.332   5.036   1.552  0.3496  0.8125  0.6458
 4229SOL     OW14127   4.776   1.421   7.347  0.2156  0.1865 -0.1363
 4229SOL    HW114128   4.716   1.360   7.392  0.5030  0.0952  0.1271
 4229SOL    HW214129   4.750   1.507   7.379 -1.1469  0.3750 -1.5860
 4230SOL     OW14130   2.620   0.491   8.691  0.2118  0.1424  0.4348
 4230SOL    HW114131   2.702   0.469   8.649 -0.8616 -1.3586 -0.9916
 4230SOL    HW214132   2.623   0.586   8.701  1.7324  0.2121 -0.3834
 4231SOL     OW14133   7.500   2.118  11.810 -0.0345 -0.6904  0.3094
 4231SOL    HW114134   7.433   2.166  11.859  0.1301 -0.8169  0.6593
 4231SOL    HW214135   7.574   2.111  11.870  0.4988 -0.0832 -0.2559
 4232SOL     OW14136   7.710   4.031   3.953  0.1933 -0.0784  0.0471
 4232SOL    HW114137   7.654   4.091   3.903 -0.8445 -0.1103  1.1507
 4232SOL    HW214138   7.650   3.972   3.997  1.0261  0.4253  1.9667
 4233SOL     OW14139   1.397   5.697   2.236  0.3480  0.5263 -0.0121
 4233SOL    HW114140   1.377   5.619   2.184 -0.1842  1.0571 -0.6230
 4233SOL    HW214141   1.342   5.766   2.198 -1.8498  0.4506  2.6721
 4234SOL     OW14142   5.059   5.200   3.314 -0.0813 -0.1168 -0.2967
 4234SOL    HW114143   5.008   5.203   3.395 -1.6770  0.3831 -1.2654
 4234SOL    HW214144   5.131   5.261   3.329 -0.8896  0.7036  0.4206
 4235SOL     OW14145   3.293   0.362   9.305  0.0400 -0.0383  0.0149
 4235SOL    HW114146   3.378   0.346   9.345 -0.5050 -1.1742  0.7859
 4235SOL    HW214147   3.258   0.275   9.286 -0.8500  0.4098 -0.4979
 4236SOL     OW14148   2.364   4.414  11.598  0.1881 -0.1244 -0.1129
 4236SOL    HW114149   2.328   4.498  11.570 -0.5665  0.3041  1.9760
 4236SOL    HW214150   2.344   4.354  11.526 -0.1671  1.2411 -1.1950
 4237SOL     OW14151   6.164   5.304   9.310 -0.1629 -0.0880 -0.5337
 4237SOL    HW114152   6.237   5.319   9.250 -0.0742  1.8908  0.0039
 4237SOL    HW214153   6.118   5.388   9.314 -3.3422 -1.5669 -1.9115
 4238SOL     OW14154   3.052   7.164  10.273 -0.2482  1.1069  0.1857
 4238SOL    HW114155   3.012   7.179  10.187 -1.3532  0.7751  0.6304
 4238SOL    HW214156   3.143   7.140  10.253 -1.0744 -1.3256 -1.0491
 4239SOL     OW14157   7.820   4.602   8.577 -0.3939 -0.5647  0.9798
 4239SOL    HW114158   7.750   4.656   8.613  0.6427 -0.1082  2.4199
 4239SOL    HW214159   7.816   4.616   8.483 -1.9816 -0.2662  1.0650
 4240SOL     OW14160   0.886   5.367   6.550  0.5244 -0.6647 -0.8834
 4240SOL    HW114161   0.847   5.281   6.563 -2.8182  0.6694 -0.9714
 4240SOL    HW214162   0.900   5.400   6.638 -2.6135  0.3564 -0.6163
 4241SOL     OW14163   1.730   0.168   5.891  0.0780 -0.3925 -0.8477
 4241SOL    HW114164   1.821   0.186   5.866  0.3273 -1.1206 -0.4950
 4241SOL    HW214165   1.735   0.088   5.943 -0.8649 -0.8766 -1.4822
 4242SOL     OW14166   2.690   5.347   0.954  0.4998 -0.3910  0.2860
 4242SOL    HW114167   2.751   5.367   1.025  1.7660 -0.4425 -0.7586
 4242SOL    HW214168   2.742   5.356   0.874 -1.5234  2.4329 -0.8806
 4243SOL     OW14169   7.146   2.105  12.444  0.3773  0.2898 -0.4861
 4243SOL    HW114170   7.087   2.129  12.515  0.1662 -0.8881 -0.2366
 4243SOL    HW214171   7.090   2.098  12.366  0.6086  1.5822 -0.7938
 4244SOL     OW14172   3.410   6.047  10.978  0.6468  0.0400 -0.1535
 4244SOL    HW114173   3.394   5.987  10.905  2.3183 -1.1857  0.4400
 4244SOL    HW214174   3.324   6.084  10.997 -0.1901 -1.1426 -1.4151
 4245SOL     OW14175   2.316   3.272   2.916  0.0513  0.2590  0.0726
 4245SOL    HW114176   2.314   3.286   2.821 -1.4764  0.4081  0.1044
 4245SOL    HW214177   2.247   3.329   2.950 -1.2413 -1.7564  0.9866
 4246SOL     OW14178   7.626   0.768   8.537 -0.9870  0.6858  0.1146
 4246SOL    HW114179   7.551   0.709   8.530 -0.2462 -0.1986 -0.5163
 4246SOL    HW214180   7.669   0.764   8.451  1.0578 -0.5675  1.1313
 4247SOL     OW14181   5.473   6.072  10.740 -0.3553 -0.6688 -0.1942
 4247SOL    HW114182   5.546   6.012  10.754 -0.5287 -0.6155  1.0544
 4247SOL    HW214183   5.409   6.048  10.807 -1.1473 -0.1853 -0.7552
 4248SOL     OW14184   1.813   3.804   6.491 -0.0705  0.2861  0.5126
 4248SOL    HW114185   1.865   3.748   6.432  0.4332 -0.2974  1.4850
 4248SOL    HW214186   1.732   3.756   6.504 -0.0138  0.2190  0.6187
 4249SOL     OW14187   4.415   6.296   9.274 -0.0815  0.1431  0.3365
 4249SOL    HW114188   4.483   6.335   9.329  0.4392 -2.0929  1.3917
 4249SOL    HW214189   4.455   6.291   9.187  0.7535 -0.2169  0.7247
 4250SOL     OW14190   6.258   3.946  12.318 -0.3694  0.5329 -0.0534
 4250SOL    HW114191   6.176   3.989  12.342 -0.7994 -0.8774  1.1816
 4250SOL    HW214192   6.231   3.867  12.272  0.4247  2.0609 -3.3975
 4251SOL     OW14193   1.604   2.231   2.691  0.0617 -0.1260  0.2514
 4251SOL    HW114194   1.669   2.186   2.745  0.5533 -0.4858 -0.6192
 4251SOL    HW214195   1.533   2.167   2.680 -0.6180  0.3724  1.4567
 4252SOL     OW14196   2.257   2.481   8.807  0.0865  0.3541  0.0317
 4252SOL    HW114197   2.251   2.447   8.718 -0.5876 -0.5809  0.4180
 4252SOL    HW214198   2.167   2.489   8.837  0.2470  1.9011  0.1964
 4253SOL     OW14199   6.017   7.309   7.129  0.3663 -0.1255  0.0663
 4253SOL    HW114200   5.990   7.321   7.220  0.8227 -2.8637  0.6520
 4253SOL    HW214201   6.095   7.363   7.120  0.0797  0.4993  1.1792
 4254SOL     OW14202   1.216   2.554   9.479 -0.0198 -0.1522  0.0260
 4254SOL    HW114203   1.197   2.515   9.394 -0.5837  0.8324 -0.3106
 4254SOL    HW214204   1.131   2.585   9.511 -0.0203 -1.5313  1.4834
 4255SOL     OW14205   1.494   6.173  11.459  0.0241 -0.1611  0.2013
 4255SOL    HW114206   1.483   6.143  11.549  0.0550  1.4355  0.7608
 4255SOL    HW214207   1.408   6.162  11.419  0.2020 -1.6354  0.1534
 4256SOL     OW14208   2.524   6.099   2.372 -0.0756 -0.2848  0.0099
 4256SOL    HW114209   2.483   6.069   2.453  0.1408 -0.2998  0.1153
 4256SOL    HW214210   2.548   6.190   2.391 -1.4494  0.2186 -0.5786
 4257SOL     OW14211   7.009   1.289   6.695  0.1558 -0.3807  0.0962
 4257SOL    HW114212   6.949   1.283   6.770 -0.4274 -1.8499 -0.4510
 4257SOL    HW214213   7.079   1.348   6.725 -1.0400  0.6075  1.0974
 4258SOL     OW14214   0.770   2.835   1.209 -0.2144 -0.5564  0.6407
 4258SOL    HW114215   0.820   2.781   1.148  1.2256  1.0772  0.3102
 4258SOL    HW214216   0.695   2.866   1.158 -0.2671 -1.0549  0.4108
 4259SOL     OW14217   2.798   6.312   2.603  0.1270  0.5329 -0.0726
 4259SOL    HW114218   2.766   6.260   2.677 -0.4240  0.6996 -0.1853
 4259SOL    HW214219   2.822   6.396   2.642 -0.1288  0.6082 -0.0739
 4260SOL     OW14220   3.656   5.975  12.322  0.1666 -0.0524  0.1969
 4260SOL    HW114221   3.665   5.941  12.411  1.6698 -2.3349 -0.7342
 4260SOL    HW214222   3.565   6.004  12.317 -0.1836 -0.6448  2.2126
 4261SOL     OW14223   7.882   6.592   0.447 -0.1879 -0.3814  0.0169
 4261SOL    HW114224   7.874   6.687   0.460  0.2530 -0.1249 -1.4299
 4261SOL    HW214225   7.802   6.567   0.401  0.3297 -0.4398 -0.8868
 4262SOL     OW14226   1.458   0.209   9.765 -0.3425  0.6158 -0.1810
 4262SOL    HW114227   1.534   0.196   9.822 -0.8929  1.9756  0.9263
 4262SOL    HW214228   1.447   0.125   9.720  1.3269  0.1486  0.2169
 4263SOL     OW14229   5.871   0.706   9.185 -0.0484  0.1251  0.1983
 4263SOL    HW114230   5.965   0.706   9.170 -0.2575  0.3956 -1.4002
 4263SOL    HW214231   5.841   0.788   9.144 -0.9832  0.0343  0.6664
 4264SOL     OW14232   6.691   3.586   4.998 -0.4209 -0.2929  0.0158
 4264SOL    HW114233   6.715   3.517   5.059 -0.3637  0.3132  0.6879
 4264SOL    HW214234   6.652   3.655   5.053  0.2004  0.5242 -0.5440
 4265SOL     OW14235   1.024   7.557   5.314 -0.0276  0.3685  0.4568
 4265SOL    HW114236   1.060   7.596   5.235 -0.0082 -0.4749  0.0406
 4265SOL    HW214237   0.932   7.541   5.292  0.2296 -0.8468  0.2187
 4266SOL     OW14238   3.952   0.998   9.381  0.4691 -0.5105 -0.2592
 4266SOL    HW114239   3.988   0.924   9.431 -0.7082 -0.8197  0.1486
 4266SOL    HW214240   3.876   0.961   9.336  0.0429  0.3877 -0.2847
 4267SOL     OW14241   5.053   6.656   6.171 -0.7700 -0.5655 -0.2927
 4267SOL    HW114242   5.088   6.741   6.197 -1.8302  0.2283 -1.3350
 4267SOL    HW214243   5.130   6.604   6.147 -0.2002  0.6695 -1.2320
 4268SOL     OW14244   3.256   5.314  11.635 -0.5115 -0.2615  0.1427
 4268SOL    HW114245   3.302   5.371  11.573  0.9010  0.8783  2.1020
 4268SOL    HW214246   3.188   5.370  11.673 -0.5513 -0.5551  0.5158
 4269SOL     OW14247   0.177   4.895   9.457 -0.3075 -0.1303  0.0414
 4269SOL    HW114248   0.186   4.987   9.430  2.3221 -0.7699 -1.6332
 4269SOL    HW214249   0.156   4.849   9.376 -1.6718 -1.0465  0.8856
 4270SOL     OW14250   3.535   6.760   7.253 -0.1453  0.6087 -0.4719
 4270SOL    HW114251   3.465   6.728   7.309 -0.5803  0.9814 -0.7961
 4270SOL    HW214252   3.558   6.686   7.197 -0.7665  0.6827 -0.8395
 4271SOL     OW14253   5.533   0.913  12.171  0.2022 -0.3017 -0.0099
 4271SOL    HW114254   5.606   0.927  12.110  0.4557  1.4383  0.6456
 4271SOL    HW214255   5.461   0.963  12.133 -0.8641 -2.3588 -0.8917
 4272SOL     OW14256   3.178   5.793   5.991  0.1821 -0.6537 -0.2949
 4272SOL    HW114257   3.219   5.879   5.991 -0.9127 -0.1102 -0.8696
 4272SOL    HW214258   3.150   5.780   5.901 -1.7206 -0.5923  0.2496
 4273SOL     OW14259   6.294   6.169   5.223  0.1218  0.3666 -0.5746
 4273SOL    HW114260   6.382   6.133   5.222 -0.6595 -1.7247 -0.4456
 4273SOL    HW214261   6.282   6.202   5.312  0.7370  0.5985 -0.5756
 4274SOL     OW14262   4.849   1.811   1.758  0.5311 -0.1879  0.0895
 4274SOL    HW114263   4.918   1.867   1.722 -2.6279  3.4683 -0.9378
 4274SOL    HW214264   4.848   1.831   1.852 -0.2019  1.1413 -0.1810
 4275SOL     OW14265   3.686   1.054   0.764 -0.7457  0.1728  0.0562
 4275SOL    HW114266   3.641   0.985   0.716  0.6154 -0.5648 -0.2160
 4275SOL    HW214267   3.689   1.128   0.704 -5.5844  2.0255  1.5877
 4276SOL     OW14268   1.167   1.158   5.573 -0.0464  0.0607 -0.4374
 4276SOL    HW114269   1.114   1.187   5.499  1.0887  0.7278 -1.0114
 4276SOL    HW214270   1.223   1.089   5.538 -0.3560 -0.4875  0.1127
 4277SOL     OW14271   0.589   4.489   6.653 -0.0440  0.0474  0.1607
 4277SOL    HW114272   0.677   4.464   6.624 -0.7484 -1.1622 -1.0914
 4277SOL    HW214273   0.568   4.566   6.600 -0.2373 -0.4639 -0.5194
 4278SOL     OW14274   6.416   4.255   3.476 -0.3102  0.0761 -0.1680
 4278SOL    HW114275   6.453   4.343   3.487 -1.7917  0.8493 -1.0778
 4278SOL    HW214276   6.325   4.270   3.452 -0.9751 -1.7560  1.0115
 4279SOL     OW14277   2.172   0.415   9.894 -0.3670  0.2566  0.1703
 4279SOL    HW114278   2.114   0.468   9.947 -0.1184 -0.0848  0.7969
 4279SOL    HW214279   2.148   0.435   9.803 -1.5122  0.0632  0.4149
 4280SOL     OW14280   4.837   3.608  11.689 -0.2316 -0.3507 -0.1049
 4280SOL    HW114281   4.856   3.671  11.619  1.0026  1.5625  1.8391
 4280SOL    HW214282   4.800   3.661  11.760  0.2312 -1.9020  1.3620
 4281SOL     OW14283   0.291   6.886   5.925  0.2880  0.4217 -0.1261
 4281SOL    HW114284   0.258   6.940   5.997 -0.8701  1.9228 -1.7040
 4281SOL    HW214285   0.212   6.853   5.882  0.9636 -1.6809  0.1019
 4282SOL     OW14286   6.761   3.419  12.063 -0.1988 -0.3626  0.2830
 4282SOL    HW114287   6.857   3.417  12.066 -0.0585 -1.2786 -2.2256
 4282SOL    HW214288   6.735   3.458  12.146  2.3098 -0.9427  1.4346
 4283SOL     OW14289   1.557   1.226   4.555 -0.8520 -0.5726 -0.1382
 4283SOL    HW114290   1.629   1.227   4.492  2.2183 -0.7402  3.0738
 4283SOL    HW214291   1.543   1.134   4.575  2.2477 -0.5111  3.3623
 4284SOL     OW14292   3.699   7.735  11.373 -0.3695  0.2140 -0.4065
 4284SOL    HW114293   3.773   7.796  11.377  0.7595 -0.9025 -2.5061
 4284SOL    HW214294   3.622   7.792  11.366 -0.2392  1.5223  4.9526
 4285SOL     OW14295   4.876   7.703   7.068 -0.0497  0.4042  0.3643
 4285SOL    HW114296   4.962   7.722   7.104  0.2075 -0.0803  0.0137
 4285SOL    HW214297   4.884   7.717   6.974 -0.2498  0.0166  0.2835
 4286SOL     OW14298   7.417   7.931   4.614 -0.9416 -0.3607 -0.1300
 4286SOL    HW114299   7.393   7.935   4.707  0.2140 -0.6291  0.2012
 4286SOL    HW214300   7.345   7.974   4.569 -0.9444  0.9362  1.0157
 4287SOL     OW14301   0.833   3.842   2.202 -0.6455 -0.1936 -0.4791
 4287SOL    HW114302   0.797   3.756   2.180 -2.4177  0.5671 -0.7614
 4287SOL    HW214303   0.879   3.828   2.285 -0.5987 -1.4763 -0.6994
 4288SOL     OW14304   4.552   5.856   3.646  0.6647 -0.5453  0.1123
 4288SOL    HW114305   4.465   5.844   3.685  1.5161 -0.1297  2.2314
 4288SOL    HW214306   4.571   5.949   3.658  1.4211 -0.6363 -0.3213
 4289SOL     OW14307   4.532   5.731   6.223  0.3233 -0.1957  0.4686
 4289SOL    HW114308   4.474   5.686   6.162  0.6637  1.6386 -1.3076
 4289SOL    HW214309   4.597   5.665   6.248  0.6202 -0.8200 -1.7720
 4290SOL     OW14310   7.083   7.140   1.337 -1.0593 -0.5826 -0.1462
 4290SOL    HW114311   7.045   7.215   1.382  2.6178  2.9193 -2.2240
 4290SOL    HW214312   7.161   7.118   1.388  0.9449  0.8256 -2.4116
 4291SOL     OW14313   0.829   7.962   0.890  0.3261 -0.9001  0.1400
 4291SOL    HW114314   0.786   8.007   0.817  1.1539  0.2846  0.3543
 4291SOL    HW214315   0.779   7.991   0.967  2.2649  1.6531  0.5744
 4292SOL     OW14316   5.640   5.109   8.725  0.1241  0.3056 -0.3912
 4292SOL    HW114317   5.571   5.043   8.720  1.1473 -0.8207 -0.1672
 4292SOL    HW214318   5.604   5.185   8.679 -1.2645 -0.2388 -0.2457
 4293SOL     OW14319   0.330   4.054  10.417 -0.1335 -0.5435  0.8257
 4293SOL    HW114320   0.260   4.073  10.479  0.3197  1.0796  0.8748
 4293SOL    HW214321   0.288   3.999  10.351 -1.2692 -0.2098  1.2449
 4294SOL     OW14322   0.863   6.811  12.164  0.2841 -0.4198 -0.1400
 4294SOL    HW114323   0.861   6.724  12.202  1.6448 -0.8753 -1.0155
 4294SOL    HW214324   0.779   6.851  12.188 -0.2904 -1.9062  0.4002
 4295SOL     OW14325   4.154   7.965   8.032 -0.1350  0.4201 -0.4441
 4295SOL    HW114326   4.079   7.915   8.002  1.2703 -2.0985 -0.0572
 4295SOL    HW214327   4.149   7.960   8.128  0.2708  0.6062 -0.4116
 4296SOL     OW14328   2.158   2.410   5.258  0.3516 -0.1499 -0.1823
 4296SOL    HW114329   2.124   2.499   5.253  2.2664  0.6284 -0.2298
 4296SOL    HW214330   2.173   2.385   5.167 -0.9911 -0.8819 -0.2237
 4297SOL     OW14331   3.016   0.158   8.040  0.1807  0.8361 -0.5625
 4297SOL    HW114332   3.095   0.146   8.092 -0.1923 -0.4374 -0.2356
 4297SOL    HW214333   2.946   0.119   8.093 -0.3676  0.4134 -1.5570
 4298SOL     OW14334   4.091   5.065   0.636  0.0425  0.0040  0.0556
 4298SOL    HW114335   4.025   5.079   0.568  1.0533  0.5036 -0.8604
 4298SOL    HW214336   4.054   5.105   0.715 -1.5947 -1.4755  0.0862
 4299SOL     OW14337   4.198   2.551   2.958 -0.1289 -0.6222  0.6713
 4299SOL    HW114338   4.235   2.504   3.033 -0.7602 -0.4564  1.0942
 4299SOL    HW214339   4.263   2.541   2.889 -0.1998 -2.0605  0.7801
 4300SOL     OW14340   0.036   3.166   7.983  0.5999  0.0172 -0.5085
 4300SOL    HW114341   0.100   3.095   7.970  0.7673  0.0370  0.1601
 4300SOL    HW214342   0.051   3.195   8.073  0.5616  0.9350 -0.7891
 4301SOL     OW14343   5.331   5.070  10.066 -0.4639 -0.5648  0.4600
 4301SOL    HW114344   5.393   5.048   9.996  0.2056 -0.5556  1.0342
 4301SOL    HW214345   5.366   5.151  10.104  1.1703 -2.2899  3.0051
 4302SOL     OW14346   4.991   0.672   3.602 -0.5287 -0.2048 -0.0921
 4302SOL    HW114347   5.036   0.692   3.685 -1.7962 -0.4517  0.6850
 4302SOL    HW214348   4.946   0.754   3.579  1.2746  0.4358 -1.5354
 4303SOL     OW14349   2.547   0.256   0.441  0.8715  0.4880  0.5855
 4303SOL    HW114350   2.557   0.295   0.354 -0.1402 -1.9163 -0.7010
 4303SOL    HW214351   2.462   0.287   0.472  0.4199 -0.0303 -0.0955
 4304SOL     OW14352   4.064   1.363   6.135  0.3428 -0.0428  0.1794
 4304SOL    HW114353   4.037   1.277   6.102 -0.0532  0.5021 -0.9526
 4304SOL    HW214354   3.982   1.407   6.156  0.4949  0.4489 -0.2502
 4305SOL     OW14355   2.081   0.182   8.596 -0.6678  0.1098 -0.2757
 4305SOL    HW114356   2.048   0.181   8.685  0.0929 -0.2961  0.0144
 4305SOL    HW214357   2.015   0.229   8.546  0.5901  3.8189  1.1497
 4306SOL     OW14358   4.026   1.146   5.984  0.2913  0.2915 -0.1230
 4306SOL    HW114359   4.101   1.150   5.925  0.8109 -2.6948  0.2112
 4306SOL    HW214360   3.959   1.098   5.935  0.0223 -0.4814  0.9617
 4307SOL     OW14361   0.973   3.880   8.683 -0.0886  0.3871 -0.1521
 4307SOL    HW114362   0.918   3.848   8.611 -0.5937 -0.9483  0.7958
 4307SOL    HW214363   0.914   3.888   8.758  0.3785  2.0144  0.0920
 4308SOL     OW14364   0.086   3.552   3.365  0.2128  0.1465 -0.2293
 4308SOL    HW114365   0.136   3.633   3.372  1.5996 -0.5687 -1.4301
 4308SOL    HW214366   0.152   3.484   3.348 -0.9958 -1.1080 -0.0895
 4309SOL     OW14367   1.766   0.090  10.607 -0.3792  0.0773 -0.0884
 4309SOL    HW114368   1.732   0.065  10.521  0.9029 -0.8425 -0.3614
 4309SOL    HW214369   1.824   0.018  10.631  0.0081  0.7774  1.1273
 4310SOL     OW14370   0.728   2.938  10.454 -0.0847  0.6457  0.5202
 4310SOL    HW114371   0.678   2.857  10.455  1.4141 -0.3433 -0.3984
 4310SOL    HW214372   0.670   3.002  10.494 -1.0900 -0.9988  1.8425
 4311SOL     OW14373   7.708   5.832   2.146 -0.2493 -0.2171 -0.2445
 4311SOL    HW114374   7.684   5.749   2.188  0.0274 -0.5465 -0.7276
 4311SOL    HW214375   7.667   5.827   2.060  1.7043 -0.9030 -1.1907
 4312SOL     OW14376   5.808   1.854   2.289 -0.6397  0.3435  0.4722
 4312SOL    HW114377   5.724   1.884   2.323 -1.3062 -0.3909 -0.4614
 4312SOL    HW214378   5.818   1.766   2.325  0.2087  0.7838  1.3578
 4313SOL     OW14379   1.822   5.938   2.222 -0.1995  0.0560 -0.5718
 4313SOL    HW114380   1.729   5.950   2.240  0.1651  2.1376  0.1232
 4313SOL    HW214381   1.826   5.920   2.128 -1.2898 -0.0179 -0.6154
 4314SOL     OW14382   2.904   2.999  11.968 -0.1164  0.1577 -0.0637
 4314SOL    HW114383   2.883   3.079  11.920  0.8910  0.9610  0.7972
 4314SOL    HW214384   2.979   3.023  12.023 -0.3416 -1.1428  0.8376
 4315SOL     OW14385   3.842   5.672   0.232 -0.0167  0.2475 -0.1253
 4315SOL    HW114386   3.871   5.728   0.304 -1.1993  0.1244  0.4784
 4315SOL    HW214387   3.897   5.698   0.158  0.8454  0.7654  0.6717
 4316SOL     OW14388   0.301   2.179   5.183  0.1169  0.8503 -0.1351
 4316SOL    HW114389   0.359   2.125   5.237  0.9080  0.2302 -1.5226
 4316SOL    HW214390   0.357   2.207   5.110 -0.3526  3.3228  0.3569
 4317SOL     OW14391   2.516   2.840  10.498  0.3585  0.4181  0.5068
 4317SOL    HW114392   2.449   2.870  10.559 -1.1647 -1.5253 -0.1180
 4317SOL    HW214393   2.559   2.767  10.542  0.8339  0.5029  0.1908
 4318SOL     OW14394   2.886   3.269   5.373  0.0602  0.4957 -0.2257
 4318SOL    HW114395   2.928   3.227   5.298  1.6869  0.8918  0.4433
 4318SOL    HW214396   2.859   3.196   5.429  1.0443  0.2721 -0.0356
 4319SOL     OW14397   2.781   0.610   9.708  0.6021 -0.5207  0.5392
 4319SOL    HW114398   2.754   0.702   9.715 -2.1937 -1.1888 -0.3013
 4319SOL    HW214399   2.847   0.609   9.639  1.1184  0.8955  0.9663
 4320SOL     OW14400   2.676   4.679   7.726 -0.4776 -0.1234  0.0495
 4320SOL    HW114401   2.712   4.742   7.663 -0.0986  1.1457  1.4641
 4320SOL    HW214402   2.722   4.598   7.708 -3.1799 -1.0697 -3.9423
 4321SOL     OW14403   7.576   2.995   3.616  0.4777 -0.0890  0.1654
 4321SOL    HW114404   7.639   2.935   3.577  0.0436 -0.5455  0.1629
 4321SOL    HW214405   7.545   3.048   3.542 -3.0050 -3.2786 -0.9571
 4322SOL     OW14406   0.591   5.045   9.011  0.0992 -0.2717 -0.2027
 4322SOL    HW114407   0.623   5.125   8.969  1.6288 -0.5709  0.3178
 4322SOL    HW214408   0.549   4.997   8.940  0.6935  0.2194 -0.9142
 4323SOL     OW14409   5.447   6.957   2.495 -0.3632 -0.7478  0.3671
 4323SOL    HW114410   5.532   6.996   2.472 -0.0418 -1.3283  0.5628
 4323SOL    HW214411   5.383   7.023   2.467  0.1821  0.0616  0.9685
 4324SOL     OW14412   7.772   0.859   3.558 -0.4903 -0.0178 -0.0988
 4324SOL    HW114413   7.866   0.876   3.553 -0.0299 -1.9906  0.7379
 4324SOL    HW214414   7.747   0.834   3.469 -0.5275  1.7088 -0.6074
 4325SOL     OW14415   0.150   5.870   9.410 -0.1469  0.0686 -0.0984
 4325SOL    HW114416   0.243   5.885   9.426 -0.2132  1.5551 -0.9636
 4325SOL    HW214417   0.112   5.859   9.497  0.9510 -1.4321  0.2327
 4326SOL     OW14418   6.663   1.646   2.663  0.1988 -0.0628 -0.3028
 4326SOL    HW114419   6.670   1.738   2.637 -0.7629 -0.1639 -0.9664
 4326SOL    HW214420   6.599   1.609   2.602 -0.5514 -0.8182  0.9053
 4327SOL     OW14421   7.070   0.673   7.194 -0.1692  0.2407 -0.6695
 4327SOL    HW114422   7.108   0.625   7.120 -3.8883 -1.4466 -1.7252
 4327SOL    HW214423   7.046   0.604   7.256  2.7720  1.6041  2.3059
 4328SOL     OW14424   7.733   6.701  10.722 -0.7824  0.6071 -0.6632
 4328SOL    HW114425   7.822   6.695  10.757 -0.8075 -1.2217 -0.8148
 4328SOL    HW214426   7.745   6.731  10.632 -0.4668  1.9527 -0.1984
 4329SOL     OW14427   2.389   4.288   3.608  0.1324  0.2655 -0.0974
 4329SOL    HW114428   2.419   4.220   3.548  1.9610 -0.4573  1.5492
 4329SOL    HW214429   2.468   4.336   3.632 -0.5835  0.6503  1.5959
 4330SOL     OW14430   1.114   3.114   9.456 -0.1781 -0.5911  0.1395
 4330SOL    HW114431   1.136   3.049   9.389 -3.4351 -2.0064  0.2461
 4330SOL    HW214432   1.119   3.066   9.539 -1.1658 -0.3029  0.3772
 4331SOL     OW14433   4.864   0.142   2.240 -0.0474 -0.0896  0.5800
 4331SOL    HW114434   4.888   0.092   2.162 -2.7002 -0.1866 -0.2792
 4331SOL    HW214435   4.850   0.076   2.308 -2.4795 -0.5445 -0.2599
 4332SOL     OW14436   3.266   4.032   1.621 -0.2156  0.6697 -0.5119
 4332SOL    HW114437   3.276   4.085   1.542 -0.6000  0.9154 -0.3986
 4332SOL    HW214438   3.268   4.096   1.692  2.0382  0.2972 -0.1661
 4333SOL     OW14439   3.688   4.278   0.192  0.5115 -0.4347 -0.5682
 4333SOL    HW114440   3.764   4.271   0.249  0.5020  0.1213 -0.4806
 4333SOL    HW214441   3.724   4.281   0.104  0.6280  0.3629 -0.4986
 4334SOL     OW14442   3.983   0.042   1.853  0.1827  1.0629  0.3365
 4334SOL    HW114443   4.065   0.087   1.875 -0.9502  2.9561  0.8993
 4334SOL    HW214444   3.955   0.083   1.771 -0.0589  0.2018 -0.0186
 4335SOL     OW14445   4.553   1.832  10.831  0.1379 -0.2174  0.0396
 4335SOL    HW114446   4.474   1.833  10.885  0.0393  0.4831 -0.1126
 4335SOL    HW214447   4.553   1.745  10.791 -0.7766 -0.0824 -0.2775
 4336SOL     OW14448   3.499   3.007   2.525 -0.2762  0.3234  0.1491
 4336SOL    HW114449   3.452   2.929   2.556 -0.5643 -0.2024 -1.5176
 4336SOL    HW214450   3.462   3.024   2.438  1.1138  1.1932 -0.2969
 4337SOL     OW14451   7.639   3.621   7.496 -0.0655 -0.0099  0.6755
 4337SOL    HW114452   7.659   3.706   7.535 -0.4252 -0.1485  1.1884
 4337SOL    HW214453   7.615   3.566   7.571  2.1955 -1.1860  0.6130
 4338SOL     OW14454   6.152   6.106   6.102  0.4491 -0.5021 -0.7970
 4338SOL    HW114455   6.142   6.177   6.037 -0.3351 -0.6675 -0.8643
 4338SOL    HW214456   6.122   6.145   6.184  0.4988 -0.5984 -0.7340
 4339SOL     OW14457   2.319   6.970  10.466  0.1848  0.2356  0.0395
 4339SOL    HW114458   2.231   6.944  10.440  0.6976  0.1416 -1.6968
 4339SOL    HW214459   2.306   7.047  10.521 -1.0220 -0.3078  0.5525
 4340SOL     OW14460   0.979   3.035   7.283  0.4170 -0.1161 -0.1941
 4340SOL    HW114461   0.925   2.960   7.260  0.8300 -0.3845 -0.2990
 4340SOL    HW214462   0.920   3.110   7.278 -0.4598 -0.6163  1.6050
 4341SOL     OW14463   6.877   5.492   4.540  0.1110 -0.7153  0.3114
 4341SOL    HW114464   6.888   5.399   4.518  3.2144 -0.2277 -0.6527
 4341SOL    HW214465   6.815   5.525   4.474 -0.5803 -1.9449  0.3134
 4342SOL     OW14466   2.546   3.067  11.292 -0.1036  0.4232  0.2224
 4342SOL    HW114467   2.584   3.154  11.277  1.0063 -0.0094  0.3943
 4342SOL    HW214468   2.599   3.030  11.363 -0.3876 -0.5031 -0.0320
 4343SOL     OW14469   2.835   7.906   9.545 -0.8615  0.9022 -0.1943
 4343SOL    HW114470   2.764   7.890   9.483 -0.2150  0.3859 -0.8309
 4343SOL    HW214471   2.796   7.894   9.631 -1.9129  2.1765 -0.4699
 4344SOL     OW14472   7.785   0.946   2.521 -0.0761  0.0646 -0.3717
 4344SOL    HW114473   7.728   0.897   2.579  0.9099  1.9494  2.4000
 4344SOL    HW214474   7.864   0.893   2.514 -0.0880 -0.0432  0.2923
 4345SOL     OW14475   2.737   0.423   9.127 -0.2969 -0.1484 -0.0160
 4345SOL    HW114476   2.699   0.511   9.130  3.4690  1.9338 -3.0480
 4345SOL    HW214477   2.690   0.379   9.057  0.4369  1.0948 -1.3529
 4346SOL     OW14478   6.476   1.761  10.326  0.2277 -0.1020 -0.4136
 4346SOL    HW114479   6.540   1.801  10.386 -1.1274 -0.1515  1.1314
 4346SOL    HW214480   6.528   1.706  10.269  1.6441  0.3625  0.3749
 4347SOL     OW14481   3.994   2.882  11.306 -0.4599 -0.1907  0.4333
 4347SOL    HW114482   3.907   2.921  11.314 -0.6842 -0.5856 -0.0236
 4347SOL    HW214483   4.031   2.886  11.394 -0.7286  0.4665  0.5211
 4348SOL     OW14484   6.258   2.106   9.776  0.7995  0.2966  0.4224
 4348SOL    HW114485   6.282   2.049   9.850 -1.4041  1.3060  2.0391
 4348SOL    HW214486   6.202   2.051   9.722  3.1489 -0.7428 -1.1223
 4349SOL     OW14487   6.918   2.680   2.689  0.8547 -0.0809 -0.2123
 4349SOL    HW114488   6.943   2.769   2.662  0.6613 -0.1319 -0.5707
 4349SOL    HW214489   6.916   2.683   2.784  0.5148  0.3976 -0.2294
 4350SOL     OW14490   3.064   1.084   3.068  0.9232  0.2413 -0.0551
 4350SOL    HW114491   3.054   1.162   3.014 -0.8680  0.5847  0.7014
 4350SOL    HW214492   3.062   1.117   3.158  0.7217 -0.6045  0.2580
 4351SOL     OW14493   0.646   5.618   5.623 -0.1272 -0.4782 -0.2269
 4351SOL    HW114494   0.718   5.659   5.671  0.5712  1.5068 -2.7867
 4351SOL    HW214495   0.567   5.662   5.656  0.2450  0.2134 -0.2456
 4352SOL     OW14496   2.046   7.745   6.005  0.3707  0.2687  0.0262
 4352SOL    HW114497   2.077   7.827   5.967 -3.2471  2.0464  0.4535
 4352SOL    HW214498   2.051   7.759   6.100  1.4129 -0.7944  0.1552
 4353SOL     OW14499   4.110   3.820   1.859 -0.0733  0.2985  0.2546
 4353SOL    HW114500   4.183   3.775   1.816 -0.8702 -1.1842  0.3825
 4353SOL    HW214501   4.141   3.837   1.948 -0.2334 -1.3476  0.6682
 4354SOL     OW14502   4.658   3.192   0.565  0.0582  0.4167 -0.6584
 4354SOL    HW114503   4.574   3.172   0.523 -0.2557 -0.7540  0.4721
 4354SOL    HW214504   4.700   3.107   0.577 -0.1896  0.5922  2.0137
 4355SOL     OW14505   0.147   6.704   8.512 -0.2526  0.8420  0.2388
 4355SOL    HW114506   0.198   6.662   8.443 -0.5978  0.3539  0.2777
 4355SOL    HW214507   0.209   6.716   8.584  0.2499  1.8329 -0.3339
 4356SOL     OW14508   6.248   2.539   8.563  0.7185 -0.1104 -0.5415
 4356SOL    HW114509   6.329   2.563   8.519  0.6407  0.3668 -0.4321
 4356SOL    HW214510   6.179   2.562   8.501  0.6490 -0.1604 -0.4825
 4357SOL     OW14511   1.234   5.703   8.824 -0.3858 -0.8374 -0.4603
 4357SOL    HW114512   1.287   5.627   8.848  0.6744 -0.2463 -0.8467
 4357SOL    HW214513   1.232   5.757   8.904  1.9256  0.4350 -1.1703
 4358SOL     OW14514   5.579   5.945   5.990 -0.1814 -0.3623 -0.1193
 4358SOL    HW114515   5.605   6.036   6.003  1.1428 -0.7384 -0.0081
 4358SOL    HW214516   5.650   5.906   5.939 -1.5564 -0.9157 -1.7108
 4359SOL     OW14517   1.264   0.937   5.157 -0.2815  0.0877 -0.5017
 4359SOL    HW114518   1.343   0.899   5.121  0.2006  0.9805 -0.4289
 4359SOL    HW214519   1.288   0.963   5.246 -0.5483  0.6606 -0.5878
 4360SOL     OW14520   1.141   4.007   9.188 -0.4894  0.5612  0.1335
 4360SOL    HW114521   1.171   3.921   9.217  1.2761  1.1540  0.1712
 4360SOL    HW214522   1.046   3.998   9.181 -0.6111 -0.7042  2.4367
 4361SOL     OW14523   5.425   4.812   8.033  0.0489  0.4113 -0.3582
 4361SOL    HW114524   5.357   4.829   8.099  0.1104  0.7077 -0.3668
 4361SOL    HW214525   5.389   4.742   7.979  1.1996 -1.9553  1.7255
 4362SOL     OW14526   1.842   2.210   0.036 -0.2985 -0.2414  0.4666
 4362SOL    HW114527   1.809   2.291   0.074 -2.5074  0.3287 -2.2751
 4362SOL    HW214528   1.937   2.220   0.034 -0.5414  2.8761 -0.8184
 4363SOL     OW14529   2.032   7.000   5.603  0.6461 -0.2901 -0.0725
 4363SOL    HW114530   1.970   7.057   5.649  2.1349 -0.9683  3.0467
 4363SOL    HW214531   2.076   7.057   5.541 -1.2265  0.7831 -0.4976
 4364SOL     OW14532   6.777   3.210   8.690  0.0849  0.0572 -0.2405
 4364SOL    HW114533   6.830   3.155   8.633  0.3537  0.5189 -0.4459
 4364SOL    HW214534   6.804   3.186   8.779  0.1258 -0.2130 -0.3246
 4365SOL     OW14535   5.618   7.162   9.260 -0.6278  0.2233 -0.0147
 4365SOL    HW114536   5.692   7.115   9.300 -0.9282 -0.2285  0.0163
 4365SOL    HW214537   5.594   7.108   9.185 -1.7914 -0.3518  0.7427
 4366SOL     OW14538   5.086   6.138   9.744  0.2377  0.7193 -0.8841
 4366SOL    HW114539   5.175   6.153   9.774  0.9484 -1.8648 -1.4809
 4366SOL    HW214540   5.096   6.102   9.655 -1.4516  1.3097 -1.3553
 4367SOL     OW14541   6.926   5.497   0.728 -0.4162 -0.7476 -0.0018
 4367SOL    HW114542   6.870   5.574   0.733 -0.3846 -0.8080  1.6644
 4367SOL    HW214543   7.011   5.526   0.761  0.1425 -1.0409 -1.1117
 4368SOL     OW14544   4.411   4.985  12.410  0.1096  0.4436  0.2355
 4368SOL    HW114545   4.351   5.060  12.414  0.3253  0.8171 -2.0468
 4368SOL    HW214546   4.366   4.923  12.353  0.8365 -0.3159  0.4817
 4369SOL     OW14547   4.053   0.019  11.939  0.3643 -0.2842 -0.3707
 4369SOL    HW114548   3.983  -0.046  11.940 -0.7584  0.9107  0.0258
 4369SOL    HW214549   4.054   0.052  11.849  1.0990 -1.0021 -0.6370
 4370SOL     OW14550   6.076   2.006   4.753 -0.4099  0.0838 -0.0878
 4370SOL    HW114551   6.062   2.057   4.833 -0.1940  1.1696 -0.7227
 4370SOL    HW214552   5.988   1.979   4.726 -0.7044  1.4045 -0.5448
 4371SOL     OW14553   6.016   2.400   3.488 -0.4122  0.2265  0.2499
 4371SOL    HW114554   6.067   2.347   3.427 -1.5894 -1.2681  0.5205
 4371SOL    HW214555   5.997   2.481   3.439  1.7429  0.6177 -0.0223
 4372SOL     OW14556   4.162   7.696   8.852 -0.3765 -0.7928 -0.3830
 4372SOL    HW114557   4.121   7.609   8.852  0.0083 -0.9769 -0.4042
 4372SOL    HW214558   4.244   7.683   8.898 -1.3369  0.0592  1.6814
 4373SOL     OW14559   2.820   0.948   2.961  0.0967  0.5254  0.9603
 4373SOL    HW114560   2.791   1.004   3.033 -0.4751  0.4368  0.7970
 4373SOL    HW214561   2.898   0.993   2.927  0.9792  0.0594  2.2573
 4374SOL     OW14562   6.505   1.126  10.194 -0.8416  0.1568 -0.2023
 4374SOL    HW114563   6.442   1.071  10.148 -0.2652 -1.1165  0.4737
 4374SOL    HW214564   6.572   1.145  10.129 -0.1494 -1.4386 -0.0217
 4375SOL     OW14565   6.460   4.290   1.818 -0.1800 -0.1415 -0.2754
 4375SOL    HW114566   6.389   4.333   1.771  1.0577  1.2393 -0.9595
 4375SOL    HW214567   6.466   4.203   1.779 -1.0918 -0.0659 -0.6030
 4376SOL     OW14568   4.015   6.733   3.153 -0.2839  0.2380 -0.2877
 4376SOL    HW114569   4.074   6.743   3.078  0.4030  1.2646  0.3585
 4376SOL    HW214570   4.020   6.641   3.175  0.2463  0.1082 -0.9106
 4377SOL     OW14571   6.825   4.294  11.357 -0.5214 -0.2955 -0.1549
 4377SOL    HW114572   6.822   4.356  11.429  0.1966  0.2483 -0.5787
 4377SOL    HW214573   6.775   4.336  11.287 -0.7058 -0.5477 -0.1755
 4378SOL     OW14574   5.675   6.654  11.989 -0.5050  0.7064 -0.3238
 4378SOL    HW114575   5.612   6.591  12.023  0.0589  0.8159  1.0078
 4378SOL    HW214576   5.744   6.657  12.056  0.9003  0.6223 -1.6926
 4379SOL     OW14577   2.485   1.890   9.478  0.6639  0.0537 -0.8557
 4379SOL    HW114578   2.563   1.945   9.467  0.7896 -0.0674 -0.5753
 4379SOL    HW214579   2.423   1.946   9.526  1.2937 -0.5094  0.6410
 4380SOL     OW14580   5.474   4.485   5.486  0.1297 -0.5962 -0.3698
 4380SOL    HW114581   5.482   4.395   5.517 -2.5021 -1.0934 -0.8557
 4380SOL    HW214582   5.449   4.535   5.564 -0.9516 -0.8155 -0.5491
 4381SOL     OW14583   3.297   6.852   9.031  0.0788 -0.4604 -0.3643
 4381SOL    HW114584   3.267   6.928   9.082  2.1418 -0.4634  0.9685
 4381SOL    HW214585   3.330   6.890   8.950 -1.4452 -0.2494 -0.9166
 4382SOL     OW14586   6.843   4.022  11.253 -0.5808  0.0688  0.0309
 4382SOL    HW114587   6.807   4.103  11.289 -0.1728 -0.4279  1.6428
 4382SOL    HW214588   6.822   3.956  11.319  0.8581 -0.7385 -0.2835
 4383SOL     OW14589   0.780   0.287   0.756 -0.2180 -0.5404 -0.4822
 4383SOL    HW114590   0.845   0.283   0.826 -1.7793 -0.3161  1.0341
 4383SOL    HW214591   0.790   0.376   0.720 -1.2443  0.3724  1.3515
 4384SOL     OW14592   7.198   0.023   1.760  0.3426 -0.1740 -0.3164
 4384SOL    HW114593   7.291   0.017   1.738  0.6276  2.5597 -0.2439
 4384SOL    HW214594   7.197   0.047   1.853 -0.3609  0.8803 -0.5797
 4385SOL     OW14595   1.787   1.547   6.817 -0.3026  0.1436 -0.2265
 4385SOL    HW114596   1.750   1.506   6.739  0.0811  1.9727 -1.4385
 4385SOL    HW214597   1.847   1.481   6.852 -0.8933 -0.9251 -1.1519
 4386SOL     OW14598   5.827   1.137  10.587 -0.1028  0.2598 -0.3036
 4386SOL    HW114599   5.773   1.106  10.514 -0.5671  1.8936 -0.6919
 4386SOL    HW214600   5.791   1.223  10.609  0.9811  0.4429  0.8761
 4387SOL     OW14601   6.567   4.573  12.104 -0.3556  0.1381  0.2005
 4387SOL    HW114602   6.531   4.492  12.141  0.8563 -0.8731 -0.7457
 4387SOL    HW214603   6.523   4.582  12.020  2.0296 -1.5914 -1.3825
 4388SOL     OW14604   5.918   2.340   1.133 -0.1445  0.0125  0.4996
 4388SOL    HW114605   5.984   2.270   1.131  0.9020  0.9902 -0.8886
 4388SOL    HW214606   5.840   2.301   1.093  1.0526  0.1973 -2.1691
 4389SOL     OW14607   1.751   3.194   2.534 -0.1165  0.4865  0.1224
 4389SOL    HW114608   1.784   3.105   2.522  1.1415  0.9518  0.0343
 4389SOL    HW214609   1.725   3.222   2.446 -0.8982  0.0800  0.2110
 4390SOL     OW14610   1.187   6.835   3.115  0.2023  0.2041 -0.8110
 4390SOL    HW114611   1.270   6.804   3.080  0.4160  1.2406 -1.2600
 4390SOL    HW214612   1.202   6.844   3.209 -0.9520 -4.5089  0.0899
 4391SOL     OW14613   3.162   1.215  12.339  0.5113 -0.3514  0.9951
 4391SOL    HW114614   3.187   1.134  12.385  0.1797 -0.3749  1.1336
 4391SOL    HW214615   3.158   1.189  12.247  0.7227 -0.4136  1.0010
 4392SOL     OW14616   1.624   7.026   9.081  0.1931 -0.1814  0.2740
 4392SOL    HW114617   1.621   7.034   9.177 -0.9036  2.2117  0.1120
 4392SOL    HW214618   1.620   7.116   9.050  2.0251 -0.8024 -2.0508
 4393SOL     OW14619   4.565   0.726   9.390  0.3245 -0.2702  0.3079
 4393SOL    HW114620   4.554   0.675   9.471 -0.2224 -0.0886  0.3534
 4393SOL    HW214621   4.495   0.695   9.333  0.3192  0.0497  0.1387
 4394SOL     OW14622   1.797   6.163   1.783 -0.1113  0.2219 -0.0116
 4394SOL    HW114623   1.832   6.108   1.713  2.4887  0.6665  0.8430
 4394SOL    HW214624   1.829   6.122   1.863 -0.5237  1.4016  0.7765
 4395SOL     OW14625   7.376   4.284   7.795 -0.5335  0.9278  0.0548
 4395SOL    HW114626   7.396   4.292   7.888  1.1257 -0.6661 -0.1035
 4395SOL    HW214627   7.282   4.268   7.791 -1.1217  3.5329  1.2320
 4396SOL     OW14628   6.316   1.370   7.007  0.1967  0.1950  0.0961
 4396SOL    HW114629   6.292   1.453   7.048 -0.3396 -0.5850  1.4461
 4396SOL    HW214630   6.284   1.378   6.917 -1.0592  0.9651  0.5734
 4397SOL     OW14631   2.867   7.159  12.439 -0.0858 -0.0494 -0.3193
 4397SOL    HW114632   2.874   7.146  12.344 -1.2848  0.9911 -0.5697
 4397SOL    HW214633   2.801   7.227  12.449 -0.5397 -0.6969  1.3098
 4398SOL     OW14634   3.963   3.448   1.141 -0.0008 -0.3520 -0.3447
 4398SOL    HW114635   3.928   3.537   1.145 -1.5437 -0.8687 -1.5947
 4398SOL    HW214636   4.038   3.455   1.082 -0.1432  0.1083 -0.4735
 4399SOL     OW14637   6.567   1.128   8.059  0.0097  0.2519 -0.5654
 4399SOL    HW114638   6.621   1.203   8.084  0.4067  0.1003 -0.9600
 4399SOL    HW214639   6.630   1.063   8.026 -0.2469 -0.5318  0.4234
 4400SOL     OW14640   2.616   2.407   2.082  0.5651  0.1808  0.6099
 4400SOL    HW114641   2.584   2.459   2.155  1.0962  0.4521  0.6518
 4400SOL    HW214642   2.538   2.387   2.030  0.2044  0.0827  1.1886
 4401SOL     OW14643   3.158   5.019   8.716 -0.1007  0.2367 -0.2924
 4401SOL    HW114644   3.127   5.002   8.805 -0.9948 -1.0667 -0.8165
 4401SOL    HW214645   3.252   5.034   8.726 -0.0637 -0.5841  0.8052
 4402SOL     OW14646   0.273   1.141   0.993 -0.7620  0.1318 -0.2486
 4402SOL    HW114647   0.256   1.111   1.082 -0.8831  1.1930  0.0993
 4402SOL    HW214648   0.367   1.128   0.981 -0.2998  2.0555  0.8691
 4403SOL     OW14649   5.571   5.306   4.316 -0.6578 -0.0492 -0.3744
 4403SOL    HW114650   5.504   5.375   4.315 -2.7821 -1.9780 -0.2941
 4403SOL    HW214651   5.553   5.255   4.236  1.1061 -0.3207 -0.6313
 4404SOL     OW14652   5.677   2.225   8.950 -0.0777  0.0955 -0.6063
 4404SOL    HW114653   5.698   2.172   9.028 -0.5764  0.3553 -0.2911
 4404SOL    HW214654   5.584   2.245   8.959 -0.4637 -0.9627 -1.9390
 4405SOL     OW14655   0.111   1.168   3.560 -0.2564  0.1110  0.3296
 4405SOL    HW114656   0.198   1.206   3.578 -0.3683  0.7232 -0.3595
 4405SOL    HW214657   0.129   1.089   3.511 -0.1069  0.7697 -0.7104
 4406SOL     OW14658   1.248   7.843  10.814  0.3126  1.0203  0.8876
 4406SOL    HW114659   1.211   7.822  10.728 -2.3761  1.5965  1.8179
 4406SOL    HW214660   1.317   7.906  10.795 -0.6686  1.6473 -0.8367
 4407SOL     OW14661   7.222   7.270   8.775 -0.2419  0.0285  0.0135
 4407SOL    HW114662   7.311   7.253   8.804 -0.4633 -0.9427  0.1840
 4407SOL    HW214663   7.224   7.359   8.740  1.1240 -0.4870 -1.3164
 4408SOL     OW14664   2.999   5.802   3.352  0.4709 -0.2118  0.2605
 4408SOL    HW114665   2.933   5.816   3.284  2.2571 -1.0690 -1.7713
 4408SOL    HW214666   2.997   5.708   3.368  0.5053 -0.1013  0.9534
 4409SOL     OW14667   0.336   3.976   5.358 -0.0889 -0.3386 -0.1128
 4409SOL    HW114668   0.303   4.052   5.405  0.0599 -0.2030 -0.2268
 4409SOL    HW214669   0.263   3.913   5.360  0.1777 -0.6382  0.9683
 4410SOL     OW14670   0.979   2.874  10.490 -0.4646 -0.0108 -0.5589
 4410SOL    HW114671   0.885   2.869  10.474 -0.3618 -0.4129 -1.0410
 4410SOL    HW214672   1.003   2.962  10.461 -0.7600  0.2475 -0.0407
 4411SOL     OW14673   4.298   2.222   7.538 -0.3986  0.2055 -0.2554
 4411SOL    HW114674   4.233   2.171   7.490 -0.2383 -0.1758 -0.0654
 4411SOL    HW214675   4.348   2.267   7.469  0.0686 -0.6227 -0.4781
 4412SOL     OW14676   1.061   5.560   1.984  0.1549 -0.2059  0.0639
 4412SOL    HW114677   1.055   5.598   2.071  1.1207  0.4181 -0.1266
 4412SOL    HW214678   1.028   5.471   1.994  0.5269 -0.2330  1.1329
 4413SOL     OW14679   5.083   3.684   2.979  0.0957  0.2217  0.3285
 4413SOL    HW114680   5.116   3.673   3.068  0.9836  1.9017  0.2647
 4413SOL    HW214681   4.992   3.656   2.982  0.8908 -2.4993  1.0528
 4414SOL     OW14682   0.109   7.145  11.640  0.1947  0.1587  0.2529
 4414SOL    HW114683   0.205   7.152  11.636  0.3452 -0.8039  1.3954
 4414SOL    HW214684   0.092   7.051  11.629 -0.5582  0.2175  0.8530
 4415SOL     OW14685   0.388   5.953   9.472  0.0150 -0.2149 -0.2238
 4415SOL    HW114686   0.367   5.903   9.551  0.6533 -1.2570 -0.6944
 4415SOL    HW214687   0.396   6.043   9.502  0.2354 -0.5964  0.9109
 4416SOL     OW14688   1.523   1.129   9.355 -0.0356  0.0159  0.2613
 4416SOL    HW114689   1.501   1.177   9.435  0.1243 -1.1147  1.0142
 4416SOL    HW214690   1.615   1.105   9.366  0.4042  1.0605 -0.9323
 4417SOL     OW14691   3.494   6.806   3.957 -0.0666  0.0747 -0.6745
 4417SOL    HW114692   3.426   6.852   4.005 -0.1473 -0.2533 -0.4775
 4417SOL    HW214693   3.574   6.820   4.009 -0.2879 -0.8779 -0.0619
 4418SOL     OW14694   7.907   0.502   3.485  0.9999  0.0089 -0.0984
 4418SOL    HW114695   7.885   0.419   3.442 -0.1094  0.2474 -0.0193
 4418SOL    HW214696   7.853   0.502   3.564  1.3162  0.6165  0.1159
 4419SOL     OW14697   6.016   6.310   1.706  1.2853 -0.5025  0.5416
 4419SOL    HW114698   5.984   6.221   1.721  1.0010 -0.2196  1.6746
 4419SOL    HW214699   6.082   6.300   1.637 -1.6037 -1.0344 -2.4216
 4420SOL     OW14700   1.115   6.528   3.282 -0.0674 -0.2587 -0.4945
 4420SOL    HW114701   1.115   6.518   3.187 -0.2588 -2.3866 -0.3214
 4420SOL    HW214702   1.195   6.485   3.311  1.9793  3.5914  0.1399
 4421SOL     OW14703   7.782   3.523  11.577 -0.8030  0.2171 -0.1462
 4421SOL    HW114704   7.853   3.478  11.622 -1.8635 -0.4902  0.8661
 4421SOL    HW214705   7.735   3.571  11.646 -3.2120 -1.8783 -0.1658
 4422SOL     OW14706   5.578   2.861   8.553  0.1110  0.2604  0.1650
 4422SOL    HW114707   5.628   2.941   8.536 -1.8054  0.8933 -3.4682
 4422SOL    HW214708   5.600   2.803   8.481  0.1057 -1.8557  1.7820
 4423SOL     OW14709   3.674   3.291   7.783 -0.0802 -0.2824 -0.6333
 4423SOL    HW114710   3.617   3.360   7.751  1.6696  1.3535 -0.4040
 4423SOL    HW214711   3.658   3.289   7.878  3.4393  3.5969  0.3522
 4424SOL     OW14712   3.746   3.267  11.072 -0.1318 -0.7528 -0.5014
 4424SOL    HW114713   3.712   3.216  10.999 -1.6981 -0.3650 -0.0945
 4424SOL    HW214714   3.743   3.358  11.042  2.8435 -0.8428 -1.3017
 4425SOL     OW14715   7.193   7.779   5.476  0.1761 -0.2280 -0.0638
 4425SOL    HW114716   7.213   7.783   5.569  1.3008 -0.0835 -0.2941
 4425SOL    HW214717   7.132   7.705   5.467  2.0732 -1.9452  0.4840
 4426SOL     OW14718   3.655   4.358   1.443 -0.4215 -0.8573 -0.3178
 4426SOL    HW114719   3.677   4.446   1.411 -1.2460 -0.7908 -0.7238
 4426SOL    HW214720   3.563   4.365   1.469  0.1540 -0.9451  1.9653
 4427SOL     OW14721   4.881   2.587   6.488 -0.1743 -0.1964  0.3196
 4427SOL    HW114722   4.905   2.644   6.416  0.4393 -1.0193 -0.1492
 4427SOL    HW214723   4.790   2.563   6.470 -0.5607  0.9102  0.7264
 4428SOL     OW14724   3.201   6.317   2.911 -0.5775 -0.3837  0.0952
 4428SOL    HW114725   3.294   6.340   2.903 -0.8966  1.6813  1.4927
 4428SOL    HW214726   3.193   6.235   2.862  1.6901  0.0733 -1.2304
 4429SOL     OW14727   7.879   2.387  10.441 -0.1813 -0.4377 -0.1968
 4429SOL    HW114728   7.826   2.462  10.413  0.7253 -0.1173 -1.1210
 4429SOL    HW214729   7.947   2.379  10.373  1.9802  0.2366  1.7468
 4430SOL     OW14730   0.946   3.618  10.327  0.2119 -0.1702 -0.7980
 4430SOL    HW114731   0.944   3.638  10.234  0.1226  2.0177 -0.3748
 4430SOL    HW214732   1.036   3.589  10.343  0.0820 -1.0928 -1.6279
 4431SOL     OW14733   5.897   4.072   8.823  0.1983  0.5940 -0.6444
 4431SOL    HW114734   5.931   3.990   8.786  1.8593  1.0433 -0.2184
 4431SOL    HW214735   5.866   4.121   8.747  0.8194  0.2851 -1.1123
 4432SOL     OW14736   3.896   0.758  11.319 -0.2744  0.0030 -0.3176
 4432SOL    HW114737   3.852   0.722  11.242 -3.4158  2.0746  0.3036
 4432SOL    HW214738   3.952   0.828  11.284 -0.1287 -0.3898 -0.8753
 4433SOL     OW14739   0.480   0.063   0.325 -0.0244  0.3895 -0.0659
 4433SOL    HW114740   0.411  -0.002   0.315 -1.7221  1.7750  1.8210
 4433SOL    HW214741   0.434   0.147   0.322  1.7869  1.4383 -0.0842
 4434SOL     OW14742   7.578   1.334   0.215 -0.5733 -0.3151  0.4417
 4434SOL    HW114743   7.635   1.318   0.140  0.2636 -0.2504  1.0634
 4434SOL    HW214744   7.575   1.250   0.262 -2.0464 -0.7126 -0.2779
 4435SOL     OW14745   4.800   2.627   3.604  0.2846  0.2353 -0.1966
 4435SOL    HW114746   4.851   2.553   3.635 -0.0309  0.4713  0.9288
 4435SOL    HW214747   4.863   2.680   3.554  0.7107 -0.3695 -0.3054
 4436SOL     OW14748   7.094   3.722   1.314  0.2346  0.5223 -0.6393
 4436SOL    HW114749   7.082   3.629   1.296  2.3997 -0.4366  2.1213
 4436SOL    HW214750   7.122   3.759   1.231 -0.7217 -1.2601 -1.8131
 4437SOL     OW14751   4.568   4.602   9.722 -0.2031  0.6758 -0.0753
 4437SOL    HW114752   4.549   4.616   9.630  2.4758  2.6614 -0.4530
 4437SOL    HW214753   4.551   4.509   9.737 -0.8514  0.3478 -2.5206
 4438SOL     OW14754   4.223   7.425   3.189  0.7181  0.0809 -0.4215
 4438SOL    HW114755   4.137   7.444   3.151  1.6819 -0.1648 -2.9743
 4438SOL    HW214756   4.208   7.351   3.247 -0.9079  0.4982 -0.2605
 4439SOL     OW14757   5.546   1.603   3.452  0.5814 -0.0678  0.2453
 4439SOL    HW114758   5.466   1.652   3.435  0.2229 -0.1743  1.5128
 4439SOL    HW214759   5.613   1.648   3.400 -0.4914 -0.6903 -1.7498
 4440SOL     OW14760   2.027   0.592   6.459  0.1755 -0.2936 -0.0207
 4440SOL    HW114761   1.932   0.594   6.473  0.1752 -1.1769  0.1455
 4440SOL    HW214762   2.053   0.684   6.460 -0.5501 -0.0788  0.8913
 4441SOL     OW14763   6.332   2.690   4.961  0.0159  0.0430  0.3205
 4441SOL    HW114764   6.331   2.771   4.909 -0.9140 -0.7301 -0.9276
 4441SOL    HW214765   6.260   2.638   4.925 -1.3056 -0.1684  3.0277
 4442SOL     OW14766   7.221   1.025  10.544 -0.5751  0.0857 -0.3173
 4442SOL    HW114767   7.193   0.944  10.586 -0.7387  0.9834  1.3987
 4442SOL    HW214768   7.289   1.060  10.601  0.6769  0.3748 -1.8891
 4443SOL     OW14769   1.870   0.325   9.534  0.2961  0.4689 -0.1529
 4443SOL    HW114770   1.922   0.374   9.597  0.5457 -2.1105  1.8085
 4443SOL    HW214771   1.913   0.240   9.527 -0.3635  0.2559 -3.0343
 4444SOL     OW14772   7.907   5.603   8.909  0.3906  0.0269 -0.1742
 4444SOL    HW114773   7.976   5.563   8.857  1.5267  3.3767 -1.4962
 4444SOL    HW214774   7.922   5.571   8.998  2.6422 -0.5611 -0.7257
 4445SOL     OW14775   6.982   4.654  11.954  0.3691 -0.5299 -0.4108
 4445SOL    HW114776   7.007   4.712  12.025 -0.8673  0.2350 -0.5804
 4445SOL    HW214777   7.004   4.566  11.986  1.7494 -0.0444  0.0585
 4446SOL     OW14778   2.769   7.657  10.923  0.3465  0.4425  0.4942
 4446SOL    HW114779   2.690   7.606  10.902  1.3987 -0.8393 -0.4724
 4446SOL    HW214780   2.779   7.645  11.018 -2.1911  3.0082  1.2349
 4447SOL     OW14781   7.406   5.548   6.592  0.1631 -0.1999 -0.1279
 4447SOL    HW114782   7.389   5.495   6.514  0.6545  0.3296 -0.5947
 4447SOL    HW214783   7.456   5.623   6.561 -2.3010  1.6924  0.1678
 4448SOL     OW14784   4.078   7.127   5.398  0.0913 -0.0894 -0.5519
 4448SOL    HW114785   4.119   7.046   5.367  3.2633  1.8026 -1.7984
 4448SOL    HW214786   4.046   7.169   5.318 -3.7289 -1.0129  0.2892
 4449SOL     OW14787   6.191   0.579   1.511 -0.3942  0.0110  0.2483
 4449SOL    HW114788   6.141   0.604   1.589 -1.0486  0.8482 -0.4256
 4449SOL    HW214789   6.206   0.661   1.465 -1.9452 -0.7080 -1.6505
 4450SOL     OW14790   6.533   4.706  10.392 -0.0742  0.2010  0.0690
 4450SOL    HW114791   6.439   4.688  10.393  0.3644 -2.3481  0.6976
 4450SOL    HW214792   6.543   4.775  10.326 -2.6176  2.4349  1.8012
 4451SOL     OW14793   4.223   1.541  11.973 -0.2095  0.1570 -0.6229
 4451SOL    HW114794   4.179   1.583  11.899 -0.7060  1.7431  0.5173
 4451SOL    HW214795   4.247   1.613  12.031 -0.2162 -1.0649  0.9816
 4452SOL     OW14796   5.859   2.063   5.326 -0.4585 -0.3381  0.9118
 4452SOL    HW114797   5.846   2.140   5.270 -1.3556 -1.8770 -1.0955
 4452SOL    HW214798   5.925   2.011   5.280  1.7194  0.0977  3.2797
 4453SOL     OW14799   6.435   0.385   9.078  0.7330  0.3597  0.0792
 4453SOL    HW114800   6.365   0.377   9.144  1.1140  1.6673  0.6785
 4453SOL    HW214801   6.489   0.456   9.111  1.2017  0.7182 -1.4368
 4454SOL     OW14802   6.011   4.238   2.500 -0.0941 -0.5798 -0.1319
 4454SOL    HW114803   6.033   4.325   2.532  2.4161 -0.4421 -1.9449
 4454SOL    HW214804   5.934   4.252   2.444  0.8706  0.6680 -1.1953
 4455SOL     OW14805   6.467   2.733   0.030  0.3885 -0.4778  0.4890
 4455SOL    HW114806   6.428   2.654   0.066  2.3080 -1.5543  0.3459
 4455SOL    HW214807   6.510   2.775   0.105 -1.9281  1.3373  0.8999
 4456SOL     OW14808   2.307   3.477   9.190  0.0151 -0.2631 -0.2747
 4456SOL    HW114809   2.353   3.413   9.136  0.2427 -0.8459  0.5964
 4456SOL    HW214810   2.223   3.490   9.146  0.7905  0.4461 -1.6148
 4457SOL     OW14811   3.517   0.518   8.178 -0.2275  0.1328  0.5172
 4457SOL    HW114812   3.433   0.478   8.201 -0.7234  0.1605 -1.1154
 4457SOL    HW214813   3.517   0.602   8.224 -1.3688  0.3974  0.0550
 4458SOL     OW14814   0.464   1.943   6.786  0.7705  0.3363 -0.0059
 4458SOL    HW114815   0.376   1.930   6.822  1.1583 -0.9212  0.5458
 4458SOL    HW214816   0.451   1.998   6.708 -0.4930  0.1709  0.0752
 4459SOL     OW14817   5.617   0.620  11.065  0.6851 -0.0894  0.0103
 4459SOL    HW114818   5.547   0.609  11.000  0.5482 -1.4710  0.3481
 4459SOL    HW214819   5.677   0.548  11.047  1.7358  0.7383  0.1100
 4460SOL     OW14820   3.425   3.776  11.316 -0.6434  0.0821 -0.1998
 4460SOL    HW114821   3.399   3.841  11.251 -0.3588  0.9135  0.4978
 4460SOL    HW214822   3.422   3.693  11.269 -2.2192  0.4314 -0.7787
 4461SOL     OW14823   0.249   1.479   2.010 -0.2816  0.2001  0.0450
 4461SOL    HW114824   0.254   1.410   1.945 -0.7536  0.1079  0.1040
 4461SOL    HW214825   0.268   1.559   1.962  0.5750  0.0036  0.0364
 4462SOL     OW14826   5.776   5.441   2.360  0.3720 -0.3320  0.1356
 4462SOL    HW114827   5.778   5.354   2.321 -0.8100 -1.1917  1.8748
 4462SOL    HW214828   5.825   5.432   2.441 -0.4058  0.4086  0.7062
 4463SOL     OW14829   0.535   2.684   8.995  0.0116  0.0915  0.5569
 4463SOL    HW114830   0.548   2.623   8.922 -1.2691  0.2780  0.1470
 4463SOL    HW214831   0.597   2.754   8.980  1.1960 -0.8727  0.7884
 4464SOL     OW14832   5.901   1.484  11.252  0.7396 -0.0845  0.0379
 4464SOL    HW114833   5.947   1.454  11.331 -0.8844  1.0073  1.4605
 4464SOL    HW214834   5.923   1.577  11.246 -0.0428  0.0911 -0.1537
 4465SOL     OW14835   1.306   6.550   2.526  0.1175 -0.2381  0.2335
 4465SOL    HW114836   1.310   6.612   2.454 -0.7791  0.7123  0.9701
 4465SOL    HW214837   1.397   6.523   2.540  0.4064  0.2621 -0.6504
 4466SOL     OW14838   4.566   7.921   4.281 -0.5696  0.0560  0.0441
 4466SOL    HW114839   4.513   8.000   4.269  0.3690  1.0304  1.8342
 4466SOL    HW214840   4.502   7.852   4.302 -1.2965  0.6621 -0.1309
 4467SOL     OW14841   6.100   6.489   9.960  0.3922  0.2349 -0.3317
 4467SOL    HW114842   6.130   6.548  10.030 -0.9530  0.6397 -0.0573
 4467SOL    HW214843   6.155   6.511   9.885  0.8868  0.8250  0.1910
 4468SOL     OW14844   4.727   2.345   2.874 -0.2479 -0.1516 -0.1254
 4468SOL    HW114845   4.646   2.306   2.839  0.6174 -1.3836 -0.8646
 4468SOL    HW214846   4.793   2.324   2.808  0.1621  3.4877 -1.1031
 4469SOL     OW14847   3.261   0.529  10.255  0.1943 -0.5031 -0.0973
 4469SOL    HW114848   3.276   0.616  10.293 -1.0702 -0.3621  0.0985
 4469SOL    HW214849   3.314   0.529  10.175 -1.2913  1.1879 -1.1638
 4470SOL     OW14850   6.007   7.964   8.773 -0.1193  0.7169  0.1962
 4470SOL    HW114851   6.084   7.991   8.723 -1.3296  0.7531 -1.7583
 4470SOL    HW214852   5.941   8.031   8.753 -1.6385 -0.9939 -0.7747
 4471SOL     OW14853   2.377   2.172   3.050 -0.5251  0.9515  0.1494
 4471SOL    HW114854   2.371   2.076   3.055 -3.0865  1.0462  0.6664
 4471SOL    HW214855   2.445   2.195   3.113  0.0796 -0.5128  0.0838
 4472SOL     OW14856   7.160   1.949   0.967 -0.5184  0.3039 -0.1086
 4472SOL    HW114857   7.227   1.884   0.944 -0.0009  0.0710  1.9234
 4472SOL    HW214858   7.173   2.020   0.903 -0.3604 -1.0484 -1.6577
 4473SOL     OW14859   7.888   1.918   6.865  0.3685 -0.5765 -0.3390
 4473SOL    HW114860   7.882   1.868   6.783 -0.3964 -1.0945  0.0256
 4473SOL    HW214861   7.966   1.883   6.909 -0.6036 -2.0505  0.2867
 4474SOL     OW14862   1.611   3.652   0.842  0.1142 -0.2816 -0.6847
 4474SOL    HW114863   1.592   3.560   0.857  0.4539 -0.3341 -0.5725
 4474SOL    HW214864   1.702   3.654   0.815  0.7745  0.2078  1.3728
 4475SOL     OW14865   7.214   2.564   5.666 -0.2260  0.1592  0.4882
 4475SOL    HW114866   7.135   2.513   5.685 -0.3789  0.2410  0.0958
 4475SOL    HW214867   7.285   2.500   5.666 -0.6602 -0.4488 -1.9332
 4476SOL     OW14868   1.984   4.371  10.750  0.6565  0.2235 -0.4947
 4476SOL    HW114869   1.927   4.343  10.822  1.0742  1.7737  0.4909
 4476SOL    HW214870   1.924   4.409  10.686  0.4654  0.9953  0.1180
 4477SOL     OW14871   6.956   2.136   1.917 -0.3421 -0.2698 -0.0617
 4477SOL    HW114872   6.995   2.049   1.917  0.3831  0.0071  1.7681
 4477SOL    HW214873   6.941   2.156   2.009 -0.7088  1.4578 -0.4545
 4478SOL     OW14874   7.881   5.007   7.624  0.5214  0.5514  0.7238
 4478SOL    HW114875   7.971   5.032   7.600  1.3091 -2.5213  0.0790
 4478SOL    HW214876   7.892   4.940   7.691 -1.3941  0.9126  1.4717
 4479SOL     OW14877   7.597   2.246   0.419  0.0723 -0.2630 -0.1520
 4479SOL    HW114878   7.508   2.269   0.448  0.3681  1.8138 -0.7186
 4479SOL    HW214879   7.653   2.273   0.491  0.4827  1.4991 -1.0631
 4480SOL     OW14880   4.641   3.371   9.690  0.2665  0.6903  0.5041
 4480SOL    HW114881   4.571   3.412   9.740 -1.6275  0.2828 -1.6656
 4480SOL    HW214882   4.638   3.414   9.604 -1.0853 -3.0005 -1.5121
 4481SOL     OW14883   3.538   6.955  12.263  0.1873  0.1421 -0.6429
 4481SOL    HW114884   3.522   7.048  12.279 -0.7177  0.0315 -0.8342
 4481SOL    HW214885   3.624   6.952  12.221 -0.1577  0.9747 -1.4412
 4482SOL     OW14886   1.752   6.075  11.571  0.7313  0.3045 -0.2676
 4482SOL    HW114887   1.767   6.147  11.631 -0.1937  0.4775 -0.2196
 4482SOL    HW214888   1.670   6.098  11.526  0.7496 -0.4142 -0.6943
 4483SOL     OW14889   0.196   3.372   0.037  0.3312 -0.1015 -0.5399
 4483SOL    HW114890   0.170   3.458   0.071  1.1873 -0.2629  0.6019
 4483SOL    HW214891   0.215   3.321   0.115 -0.3450 -1.4060 -1.2013
 4484SOL     OW14892   4.896   0.790  11.308 -0.8146 -0.2804  0.2358
 4484SOL    HW114893   4.860   0.757  11.390  0.4303  0.9699  1.3277
 4484SOL    HW214894   4.940   0.715  11.269 -1.1817 -0.8181  0.8363
 4485SOL     OW14895   6.162   6.400  12.378  0.5649 -0.1399 -0.3438
 4485SOL    HW114896   6.151   6.341  12.452  1.3145 -0.0220 -0.1226
 4485SOL    HW214897   6.085   6.385  12.323 -0.6467  0.6805  1.0584
 4486SOL     OW14898   6.077   6.540   7.692 -0.4330 -0.3818 -0.2883
 4486SOL    HW114899   6.040   6.479   7.756  1.1029 -0.3054  0.7187
 4486SOL    HW214900   6.131   6.486   7.635  1.7097  0.0796  1.1903
 4487SOL     OW14901   3.698   1.509  10.839  0.2138 -0.5949  0.0374
 4487SOL    HW114902   3.784   1.485  10.874  0.2102 -2.1704 -0.9417
 4487SOL    HW214903   3.652   1.426  10.829 -0.9946  0.1154 -0.5716
 4488SOL     OW14904   5.738   5.392  11.361  0.0924 -0.3136  0.2244
 4488SOL    HW114905   5.692   5.326  11.413 -0.1675 -0.8743 -0.6910
 4488SOL    HW214906   5.800   5.432  11.422 -1.4936  0.3596  1.4604
 4489SOL     OW14907   3.278   6.887   0.094  0.0827  0.3338  0.4612
 4489SOL    HW114908   3.250   6.844   0.013 -0.3463  0.3201  0.6092
 4489SOL    HW214909   3.369   6.912   0.079 -0.2331  1.0327 -0.3104
 4490SOL     OW14910   5.774   4.498   8.908 -0.0944  0.0803 -0.8691
 4490SOL    HW114911   5.842   4.477   8.972  0.9915 -0.1435 -2.0644
 4490SOL    HW214912   5.799   4.450   8.829 -0.9801  0.9550 -1.7125
 4491SOL     OW14913   0.361   7.198   4.327 -0.2371 -0.1040  0.5974
 4491SOL    HW114914   0.313   7.119   4.352 -0.8919 -0.0011 -0.3178
 4491SOL    HW214915   0.448   7.166   4.301 -0.8529 -0.6754 -0.8591
 4492SOL     OW14916   7.954   7.691   6.739 -1.0483  0.8141  0.0821
 4492SOL    HW114917   7.899   7.751   6.790 -0.0264  0.9997  1.0097
 4492SOL    HW214918   7.996   7.636   6.805 -0.0807  0.7232 -0.5908
 4493SOL     OW14919   1.336   5.170   8.475 -0.4794 -0.1382 -0.2862
 4493SOL    HW114920   1.414   5.144   8.425 -0.3363 -0.5614  0.1472
 4493SOL    HW214921   1.324   5.262   8.453 -1.3452 -0.6752 -2.3152
 4494SOL     OW14922   1.045   7.747   5.504 -0.1188 -0.0648 -0.7184
 4494SOL    HW114923   1.102   7.820   5.479  0.8586 -0.2231  0.8503
 4494SOL    HW214924   1.055   7.683   5.433  0.8228  0.3707 -0.9952
 4495SOL     OW14925   4.175   4.647   0.787  0.3760 -0.3816  0.1984
 4495SOL    HW114926   4.247   4.600   0.744  0.4281 -0.7328  0.6644
 4495SOL    HW214927   4.125   4.685   0.715  1.0516 -0.0949 -0.1330
 4496SOL     OW14928   3.571   0.360   4.344 -0.5584  0.2609 -0.2786
 4496SOL    HW114929   3.632   0.421   4.385  1.4324 -0.6225 -1.7721
 4496SOL    HW214930   3.550   0.296   4.413 -1.8508  1.9498  0.9814
 4497SOL     OW14931   3.293   5.888  10.269  0.3182 -0.0805  0.1703
 4497SOL    HW114932   3.257   5.967  10.307 -0.6581 -0.2072 -0.4654
 4497SOL    HW214933   3.248   5.816  10.314 -1.6949 -0.2340 -1.9044
 4498SOL     OW14934   0.412   3.790   4.481 -0.4291 -0.2574 -0.5100
 4498SOL    HW114935   0.324   3.827   4.467 -1.1754 -0.9685  1.7077
 4498SOL    HW214936   0.424   3.728   4.409 -2.2347 -0.9051 -0.3222
 4499SOL     OW14937   3.666   5.282  11.631 -0.0252 -0.1152  0.1570
 4499SOL    HW114938   3.712   5.289  11.715 -1.4039 -2.2093  1.1814
 4499SOL    HW214939   3.615   5.363  11.624  2.2274  1.3565 -0.0801
 4500SOL     OW14940   2.298   2.134   7.191 -0.8062  0.1279  1.1038
 4500SOL    HW114941   2.357   2.132   7.115 -0.1593 -1.2241  1.6293
 4500SOL    HW214942   2.236   2.062   7.176 -0.2821 -0.5630  2.1535
 4501SOL     OW14943   7.064   6.046   9.799  0.0753  0.0245  0.4296
 4501SOL    HW114944   7.038   6.126   9.752  1.4838  0.1005 -0.2781
 4501SOL    HW214945   6.996   6.034   9.866 -2.3082 -0.3424 -1.8729
 4502SOL     OW14946   7.968   3.670   7.016 -0.5838 -0.5046 -0.1776
 4502SOL    HW114947   7.948   3.758   7.048 -3.4143 -0.6074 -1.3345
 4502SOL    HW214948   8.054   3.678   6.975 -0.5472  1.5689  0.1959
 4503SOL     OW14949   7.255   0.539   6.638  0.3051 -0.1011  0.0958
 4503SOL    HW114950   7.288   0.629   6.632  0.1002  0.1239  1.9232
 4503SOL    HW214951   7.266   0.515   6.730 -0.7782 -1.5172 -0.1093
 4504SOL     OW14952   1.613   5.163   6.320 -0.1960  0.3084  0.3942
 4504SOL    HW114953   1.559   5.087   6.298  0.5597  0.0017 -0.4618
 4504SOL    HW214954   1.659   5.184   6.239  1.3295  0.2533  1.2132
 4505SOL     OW14955   4.332   7.889  11.232 -0.2993  0.0153  0.9871
 4505SOL    HW114956   4.295   7.961  11.283  1.8132  1.8585  0.0938
 4505SOL    HW214957   4.335   7.922  11.142  1.1963 -0.9561  0.6509
 4506SOL     OW14958   2.635   6.692   5.667  0.2175  0.9998 -0.5618
 4506SOL    HW114959   2.549   6.724   5.638 -0.4375 -0.1197  0.0695
 4506SOL    HW214960   2.695   6.764   5.647 -0.9929  2.1312 -0.2989
 4507SOL     OW14961   0.613   0.897   2.053  0.5095 -0.2912  0.2175
 4507SOL    HW114962   0.610   0.852   1.968 -1.7083 -1.6793  0.9452
 4507SOL    HW214963   0.527   0.938   2.061  0.1104 -1.4071  2.3821
 4508SOL     OW14964   1.043   4.997   2.526  0.4193 -0.0423  0.8183
 4508SOL    HW114965   1.100   5.074   2.532  2.0824 -1.1771  0.2710
 4508SOL    HW214966   1.038   4.978   2.432  0.2184 -0.7249  0.9601
 4509SOL     OW14967   6.842   4.660   8.876 -0.2740 -0.4032 -0.2827
 4509SOL    HW114968   6.884   4.602   8.940  0.9582 -0.2968 -0.9824
 4509SOL    HW214969   6.886   4.641   8.794 -0.1271  1.2654 -0.6077
 4510SOL     OW14970   5.058   7.622   5.802 -0.4087  0.2093  0.5269
 4510SOL    HW114971   4.969   7.627   5.835 -1.0259  0.9359 -1.0891
 4510SOL    HW214972   5.048   7.603   5.708  1.1449 -0.0399  0.3728
 4511SOL     OW14973   2.728   6.208   5.720  0.4046 -0.6646 -0.0014
 4511SOL    HW114974   2.694   6.258   5.647  1.3488 -2.5670 -1.8537
 4511SOL    HW214975   2.653   6.196   5.779 -1.2175 -1.5976 -2.1310
 4512SOL     OW14976   3.382   3.896   2.723  0.4119 -0.1572  0.2604
 4512SOL    HW114977   3.436   3.827   2.685  0.3218  0.1261 -0.3900
 4512SOL    HW214978   3.374   3.872   2.815  0.5334 -0.9167  0.0788
 4513SOL     OW14979   0.023   0.001   1.272  0.0377  0.2169  0.4629
 4513SOL    HW114980   0.044   0.091   1.249 -2.1167  1.3693  2.5520
 4513SOL    HW214981  -0.065  -0.013   1.238  0.1837 -0.9603  0.5369
 4514SOL     OW14982   5.118   7.259   3.889  0.4250  0.0951  0.1717
 4514SOL    HW114983   5.067   7.241   3.810  1.9787 -0.3130 -0.7810
 4514SOL    HW214984   5.162   7.176   3.908  0.9844  0.5223  0.7717
 4515SOL     OW14985   2.917   6.424   2.310  0.0258  0.0303 -0.0457
 4515SOL    HW114986   2.912   6.413   2.215 -0.2860 -0.2005 -0.0067
 4515SOL    HW214987   2.948   6.513   2.323 -0.5804  0.2933 -0.3639
 4516SOL     OW14988   5.453   4.415  11.695  0.0498 -0.1944 -0.4105
 4516SOL    HW114989   5.545   4.426  11.719  0.2998  0.7790 -1.7283
 4516SOL    HW214990   5.452   4.337  11.639 -0.2194 -1.2209  0.9617
 4517SOL     OW14991   5.937   0.229   7.845  0.2711  0.5275 -0.5933
 4517SOL    HW114992   6.007   0.167   7.863  0.5125  0.4791 -1.6226
 4517SOL    HW214993   5.945   0.296   7.913  1.2530  0.4722 -0.6483
 4518SOL     OW14994   4.331   5.399   5.494  0.6043 -0.5700 -0.4344
 4518SOL    HW114995   4.298   5.346   5.567  1.1338  0.8064  0.8548
 4518SOL    HW214996   4.252   5.428   5.448 -0.1895  2.5562  2.5082
 4519SOL     OW14997   6.534   0.912   8.644  0.5062 -0.6606  0.5887
 4519SOL    HW114998   6.603   0.955   8.594  0.0658 -0.3690  0.2200
 4519SOL    HW214999   6.560   0.921   8.736  2.1414 -2.5925  0.3822
 4520SOL     OW15000   2.599   5.795   8.409  0.7142 -0.4928 -0.4587
 4520SOL    HW115001   2.542   5.746   8.351 -0.2138  0.1556 -0.1194
 4520SOL    HW215002   2.611   5.739   8.485 -2.4488  0.7019  1.1197
 4521SOL     OW15003   3.145   6.283   0.382  0.5950  0.0689  0.1376
 4521SOL    HW115004   3.056   6.307   0.409  0.4691  0.8145 -0.8786
 4521SOL    HW215005   3.135   6.255   0.291  1.3211 -0.3974  0.1945
 4522SOL     OW15006   3.248   3.549  10.501  0.3327  0.0224  0.3945
 4522SOL    HW115007   3.208   3.622  10.549 -0.5617  0.1060 -0.4445
 4522SOL    HW215008   3.198   3.472  10.530  0.0153  0.0247 -0.1445
 4523SOL     OW15009   3.895   7.205   3.161  0.1705 -0.1728  0.2278
 4523SOL    HW115010   3.893   7.176   3.252 -1.9785  0.6682  0.4937
 4523SOL    HW215011   3.807   7.236   3.143  1.2937  2.5850 -1.1984
 4524SOL     OW15012   6.628   4.991   4.549 -0.3246 -0.3742  0.1213
 4524SOL    HW115013   6.588   5.018   4.632  2.6780 -0.4130  1.6994
 4524SOL    HW215014   6.690   4.922   4.572  0.4500 -0.5717 -2.2134
 4525SOL     OW15015   5.539   3.760   2.790 -0.1655 -0.4013 -0.1258
 4525SOL    HW115016   5.470   3.820   2.817 -0.8592 -1.3042  0.1658
 4525SOL    HW215017   5.591   3.745   2.869  0.6385  0.5924 -0.4378
 4526SOL     OW15018   1.022   2.820   8.061  0.0945 -0.0617 -0.4635
 4526SOL    HW115019   0.981   2.841   7.977 -2.8835  1.9939  1.3230
 4526SOL    HW215020   1.098   2.878   8.066  0.8360 -0.8430 -2.0397
 4527SOL     OW15021   3.873   6.458   6.400  0.5592 -0.0266  0.1533
 4527SOL    HW115022   3.779   6.446   6.386  0.4329  1.8531 -0.9347
 4527SOL    HW215023   3.882   6.475   6.493 -0.4072  1.4013  0.0077
 4528SOL     OW15024   6.488   4.299   2.085 -0.4496 -0.2754 -0.1220
 4528SOL    HW115025   6.452   4.264   2.003  0.3555 -2.2635  0.3149
 4528SOL    HW215026   6.579   4.269   2.086  1.8558  5.2728 -1.6234
 4529SOL     OW15027   4.384   7.760  12.269  0.6207 -0.1274 -0.9333
 4529SOL    HW115028   4.330   7.776  12.345 -1.0540 -1.1959 -1.8320
 4529SOL    HW215029   4.391   7.664  12.264 -1.0657 -0.2371 -3.1942
 4530SOL     OW15030   3.926   2.228   9.674  0.4055 -0.7078  0.0526
 4530SOL    HW115031   3.939   2.253   9.765  0.9245 -0.2456 -0.1455
 4530SOL    HW215032   3.833   2.246   9.658  0.8528  1.6416 -0.2274
 4531SOL     OW15033   1.949   6.538   4.897  0.0522  0.9010 -0.2714
 4531SOL    HW115034   1.935   6.474   4.827  1.4333 -0.6830  0.8432
 4531SOL    HW215035   1.942   6.623   4.852 -2.0276  0.0405 -1.7478
 4532SOL     OW15036   3.786   1.673   4.910  0.5954  0.3308 -0.0615
 4532SOL    HW115037   3.858   1.612   4.893 -0.1262 -0.5395 -0.0626
 4532SOL    HW215038   3.744   1.640   4.989 -0.6825 -0.0309 -0.8561
 4533SOL     OW15039   7.223   7.416   9.773  0.1168 -1.1901  0.3342
 4533SOL    HW115040   7.193   7.370   9.851  0.7027 -1.1484  0.5869
 4533SOL    HW215041   7.240   7.506   9.802 -0.0029 -1.0850  0.0832
 4534SOL     OW15042   6.127   2.749   1.007  0.5031  0.3159 -0.1695
 4534SOL    HW115043   6.198   2.709   0.956 -0.5428 -0.0844 -1.3575
 4534SOL    HW215044   6.114   2.690   1.081  0.5036 -0.3387 -0.6822
 4535SOL     OW15045   2.834   7.647   4.207  0.3614 -0.0280 -0.0674
 4535SOL    HW115046   2.748   7.690   4.206  0.6636  0.5912  0.1472
 4535SOL    HW215047   2.847   7.617   4.117  0.8103  1.6817 -0.6073
 4536SOL     OW15048   3.195   6.625   3.029  0.6264 -0.0623 -0.2050
 4536SOL    HW115049   3.236   6.647   2.945  1.1331 -0.0106  0.0575
 4536SOL    HW215050   3.186   6.530   3.026  0.3096 -0.0277 -0.4694
 4537SOL     OW15051   3.140   6.460   1.475  0.0594 -0.1186 -0.0908
 4537SOL    HW115052   3.105   6.536   1.428  3.3587  1.2260 -0.6587
 4537SOL    HW215053   3.137   6.485   1.567 -1.7978 -0.6744  0.0250
 4538SOL     OW15054   3.434   5.541  11.159 -0.1442 -0.1641  0.0806
 4538SOL    HW115055   3.488   5.494  11.096  0.3415 -0.0275  0.3862
 4538SOL    HW215056   3.445   5.633  11.137  1.6051  0.0365  1.5542
 4539SOL     OW15057   2.636   3.076   4.592  0.2060  0.2867 -0.0016
 4539SOL    HW115058   2.613   3.166   4.569  0.6846  0.4224  0.0403
 4539SOL    HW215059   2.583   3.057   4.669  0.8346  0.8879  0.6005
 4540SOL     OW15060   1.783   7.441   3.472  0.0479 -0.0151  0.7814
 4540SOL    HW115061   1.715   7.404   3.416  1.5715 -1.2876 -0.3048
 4540SOL    HW215062   1.791   7.379   3.545  0.4772 -0.1960  0.5800
 4541SOL     OW15063   2.227   3.992   5.403  0.1410 -0.6093 -0.2248
 4541SOL    HW115064   2.286   4.038   5.462  0.0834 -0.9061  0.0662
 4541SOL    HW215065   2.266   3.905   5.393 -0.7436 -1.1361  0.7359
 4542SOL     OW15066   6.299   3.670   4.856  0.5300  0.1965 -0.2298
 4542SOL    HW115067   6.346   3.734   4.910  0.6757 -0.3831  0.3490
 4542SOL    HW215068   6.282   3.597   4.916 -0.2478 -0.0129 -0.6975
 4543SOL     OW15069   5.375   6.118   2.608  0.4158  0.6091 -0.0746
 4543SOL    HW115070   5.383   6.025   2.590 -1.1245  0.4862 -0.2464
 4543SOL    HW215071   5.341   6.123   2.697 -0.7804  0.9411 -0.5242
 4544SOL     OW15072   1.296   1.800  10.095 -0.0934  0.1344  0.1208
 4544SOL    HW115073   1.216   1.836  10.133 -0.4057 -0.4767  0.0505
 4544SOL    HW215074   1.278   1.798  10.001 -0.7879 -1.8754  0.2578
 4545SOL     OW15075   4.500   2.418   7.960  0.0124  0.2698 -0.0485
 4545SOL    HW115076   4.532   2.479   8.026  1.1978 -0.1150 -0.2307
 4545SOL    HW215077   4.407   2.437   7.952  0.3085  1.9399  0.0196
 4546SOL     OW15078   5.377   7.550   6.194 -0.3358  0.1669 -0.4161
 4546SOL    HW115079   5.365   7.630   6.143  2.4070  1.3902  0.6540
 4546SOL    HW215080   5.297   7.541   6.245 -1.2401  1.4584 -1.5459
 4547SOL     OW15081   4.718   0.740   7.840  0.6456 -0.7776  0.1087
 4547SOL    HW115082   4.802   0.772   7.808  0.3237 -0.7303 -0.7004
 4547SOL    HW215083   4.692   0.803   7.907  1.7917 -1.4093  1.1999
 4548SOL     OW15084   5.318   5.936  12.044 -0.4366 -0.5826 -0.4409
 4548SOL    HW115085   5.407   5.931  12.078  0.0806  1.3773 -1.3527
 4548SOL    HW215086   5.267   5.877  12.100  1.0381 -0.2215  1.3660
 4549SOL     OW15087   1.303   7.755   8.701 -0.0534  0.3805  0.0108
 4549SOL    HW115088   1.209   7.775   8.696  0.0154  0.4574 -1.9937
 4549SOL    HW215089   1.335   7.807   8.774 -1.2017  2.0581 -0.6204
 4550SOL     OW15090   3.713   4.415   1.081 -0.4506 -0.4013 -0.1721
 4550SOL    HW115091   3.797   4.396   1.122  0.0793  1.0004 -0.5627
 4550SOL    HW215092   3.698   4.508   1.097 -2.2767 -0.7742  0.4813
 4551SOL     OW15093   4.075   6.407  10.149 -0.8246 -0.4486  0.2440
 4551SOL    HW115094   4.067   6.498  10.122 -0.3885 -0.6185 -0.4765
 4551SOL    HW215095   4.040   6.357  10.075  0.5840 -0.9304 -0.1258
 4552SOL     OW15096   2.360   3.142   7.417  0.1836  0.9387  0.0093
 4552SOL    HW115097   2.451   3.118   7.435  0.1342  1.4973  1.0775
 4552SOL    HW215098   2.365   3.198   7.340  0.7702  1.1593  0.2004
 4553SOL     OW15099   6.759   1.853   9.647 -0.5024 -0.0197  0.0989
 4553SOL    HW115100   6.847   1.848   9.610  0.7171  1.9916  2.4388
 4553SOL    HW215101   6.740   1.947   9.650 -3.5120 -0.4404 -1.9055
 4554SOL     OW15102   7.380   5.694  10.388  0.8367  0.6769 -0.5806
 4554SOL    HW115103   7.414   5.776  10.422 -0.0166  0.6145  0.5018
 4554SOL    HW215104   7.288   5.712  10.369  0.1133 -0.4584  1.4410
 4555SOL     OW15105   0.697   5.247   1.969 -0.4533  0.5559  0.0365
 4555SOL    HW115106   0.619   5.297   1.944 -1.0588 -0.3193  0.1010
 4555SOL    HW215107   0.666   5.190   2.040  0.4622  0.7749  0.6250
 4556SOL     OW15108   2.329   6.553   1.957 -0.0855 -0.0715 -0.0233
 4556SOL    HW115109   2.409   6.520   1.997  0.0133  2.1557  1.8472
 4556SOL    HW215110   2.277   6.475   1.940  0.8536 -1.3569  2.4493
 4557SOL     OW15111   3.543   4.669   1.085 -0.0983  0.5907  0.6014
 4557SOL    HW115112   3.558   4.742   1.145  0.0912  0.8497  0.2479
 4557SOL    HW215113   3.490   4.707   1.015  0.1529  0.4362  0.3249
 4558SOL     OW15114   3.376   1.781   9.532  0.1601 -0.5156  0.6868
 4558SOL    HW115115   3.402   1.873   9.537  1.0530 -0.7115 -0.0785
 4558SOL    HW215116   3.295   1.776   9.582 -0.2892  0.8395  0.1272
 4559SOL     OW15117   6.271   0.129   1.579 -0.1614 -0.6071 -0.2821
 4559SOL    HW115118   6.240   0.218   1.597  2.6574  0.6145 -0.9761
 4559SOL    HW215119   6.314   0.135   1.494  0.6181 -2.4992 -0.0705
 4560SOL     OW15120   2.616   2.389   7.982 -0.0412  0.4008  0.1295
 4560SOL    HW115121   2.587   2.474   7.948  0.2004  0.5045  0.1817
 4560SOL    HW215122   2.689   2.365   7.925 -0.1155  0.2209  0.1087
 4561SOL     OW15123   6.217   6.337   3.416  0.4438 -0.5974  0.0817
 4561SOL    HW115124   6.195   6.351   3.508 -2.4877 -0.5455 -0.5238
 4561SOL    HW215125   6.175   6.410   3.370 -2.3302 -3.0455 -1.6694
 4562SOL     OW15126   0.533   1.885   4.425  0.0130  0.1148 -0.0830
 4562SOL    HW115127   0.603   1.922   4.479  0.0129 -0.5441  0.3779
 4562SOL    HW215128   0.574   1.872   4.339  0.7205 -1.0330  0.3969
 4563SOL     OW15129   6.624   7.787   2.008 -0.1709  0.2432  0.3150
 4563SOL    HW115130   6.552   7.848   2.024  1.2815  1.8123  1.2297
 4563SOL    HW215131   6.633   7.785   1.913 -1.0252  0.4993  0.2212
 4564SOL     OW15132   1.773   4.425   7.920 -0.0870 -0.6289 -0.0814
 4564SOL    HW115133   1.831   4.396   7.850  0.0973  1.4956 -0.8813
 4564SOL    HW215134   1.832   4.445   7.993  0.2448  1.4383 -0.8620
 4565SOL     OW15135   5.121   5.952   3.500  0.1293 -0.0846 -0.0813
 4565SOL    HW115136   5.129   5.876   3.558  1.3713  1.1404  1.4717
 4565SOL    HW215137   5.146   5.919   3.414 -3.4449 -2.3794 -0.4249
 4566SOL     OW15138   5.997   2.698   8.422  0.3158 -0.6079  0.5396
 4566SOL    HW115139   6.074   2.709   8.367 -0.3702  0.6967 -0.2039
 4566SOL    HW215140   5.977   2.786   8.453 -2.2325 -0.4710 -1.2023
 4567SOL     OW15141   5.147   2.828  12.379  0.0211  0.3758  0.0555
 4567SOL    HW115142   5.081   2.789  12.321 -0.6357 -1.0043  1.6321
 4567SOL    HW215143   5.098   2.894  12.430  0.4032  0.9971 -0.3731
 4568SOL     OW15144   0.068   0.504   5.533 -0.2464 -0.9213  0.7927
 4568SOL    HW115145   0.034   0.568   5.596 -2.6622 -1.2708 -0.0360
 4568SOL    HW215146   0.098   0.431   5.587 -0.1633 -0.2850  1.6266
 4569SOL     OW15147   4.198   6.446   9.446  0.0270  0.8058  0.7206
 4569SOL    HW115148   4.238   6.391   9.378 -0.0427  1.0624  0.4738
 4569SOL    HW215149   4.120   6.482   9.405  0.7472  2.1070  0.4533
 4570SOL     OW15150   5.053   7.646   6.713  0.1045  0.2712  0.2145
 4570SOL    HW115151   5.002   7.607   6.642  0.3272  2.0638 -0.9910
 4570SOL    HW215152   5.082   7.571   6.766 -1.9923 -0.9376 -0.2466
 4571SOL     OW15153   7.234   3.401   4.099  0.2786 -0.8269  0.1068
 4571SOL    HW115154   7.226   3.376   4.007  0.0392 -1.1084  0.1991
 4571SOL    HW215155   7.295   3.475   4.100 -0.7818  0.0781 -0.4282
 4572SOL     OW15156   4.764   6.286   4.478  0.2253  0.0968 -0.3775
 4572SOL    HW115157   4.786   6.329   4.561 -0.8148  0.2546 -0.1678
 4572SOL    HW215158   4.744   6.196   4.503  1.3720 -0.2610 -0.6775
 4573SOL     OW15159   5.403   1.536   3.671  0.4456 -0.6811  0.1918
 4573SOL    HW115160   5.468   1.577   3.614  1.7731 -1.0847  1.3482
 4573SOL    HW215161   5.412   1.442   3.655 -0.2430 -0.7193 -0.0199
 4574SOL     OW15162   5.187   5.683   0.495  0.2952 -0.3504 -0.2324
 4574SOL    HW115163   5.094   5.681   0.518  0.8577 -1.4994  2.3376
 4574SOL    HW215164   5.226   5.740   0.561  1.4877 -0.1842 -1.0554
 4575SOL     OW15165   3.073   0.333   1.651 -0.0135 -0.1770  0.4456
 4575SOL    HW115166   3.166   0.309   1.657 -0.2307 -0.9546  0.7510
 4575SOL    HW215167   3.064   0.406   1.713  0.3667 -0.1679  0.4974
 4576SOL     OW15168   7.115   0.305   3.414  0.2800  0.2383  0.2308
 4576SOL    HW115169   7.072   0.283   3.497 -0.2375 -1.2864 -0.4101
 4576SOL    HW215170   7.049   0.353   3.364 -0.5408 -1.5718 -0.5097
 4577SOL     OW15171   3.317   0.271  10.307  0.4308 -0.9377  0.0203
 4577SOL    HW115172   3.299   0.365  10.301  0.2155 -0.9961 -0.2402
 4577SOL    HW215173   3.233   0.229  10.292  0.3322 -1.1520  1.1289
 4578SOL     OW15174   6.148   4.527   3.589  0.0440  0.3979 -0.6094
 4578SOL    HW115175   6.187   4.571   3.514  0.3811  0.8981 -0.1450
 4578SOL    HW215176   6.102   4.452   3.551 -1.4877  1.7612 -1.5169
 4579SOL     OW15177   5.635   3.311   9.775  0.0001  0.4500 -0.3877
 4579SOL    HW115178   5.619   3.392   9.728  0.9686  0.3171 -0.9677
 4579SOL    HW215179   5.698   3.263   9.720  0.3273 -0.1770  0.5099
 4580SOL     OW15180   0.445   2.439  12.008  0.3670 -0.0394  0.0332
 4580SOL    HW115181   0.353   2.416  11.996 -0.2538  2.2477 -0.2034
 4580SOL    HW215182   0.491   2.356  12.017 -1.7893 -1.2247  0.6468
 4581SOL     OW15183   0.101   0.382  12.109 -0.1251  0.4692 -0.5564
 4581SOL    HW115184   0.113   0.440  12.185  0.4769  0.8190 -0.9122
 4581SOL    HW215185   0.175   0.321  12.114 -0.8094 -0.3428 -0.1305
 4582SOL     OW15186   5.453   3.116   9.868  0.3465 -0.3201 -0.1235
 4582SOL    HW115187   5.513   3.050   9.903  1.6192  0.3231 -0.9982
 4582SOL    HW215188   5.511   3.185   9.834 -0.9400  1.3410  0.9166
 4583SOL     OW15189   1.818   2.999   6.784  0.4009 -0.2296 -0.4535
 4583SOL    HW115190   1.813   3.036   6.872  0.5989 -0.9143 -0.1483
 4583SOL    HW215191   1.728   2.978   6.761  0.2196  0.8937 -0.8382
 4584SOL     OW15192   5.971   3.616   5.106 -0.0530 -0.6335 -0.1568
 4584SOL    HW115193   6.058   3.650   5.126  0.3287 -1.2914 -0.6598
 4584SOL    HW215194   5.961   3.631   5.012 -0.5485 -0.4343 -0.0779
 4585SOL     OW15195   0.870   2.617  12.327  0.7006  0.1798 -0.6276
 4585SOL    HW115196   0.939   2.646  12.387  0.8556  0.5328 -0.9709
 4585SOL    HW215197   0.866   2.522  12.339  1.7758  0.0565 -1.1506
 4586SOL     OW15198   5.967   6.883   1.181  0.1935  0.2586  1.1727
 4586SOL    HW115199   5.920   6.965   1.166 -0.5235 -0.1524  1.1043
 4586SOL    HW215200   5.898   6.820   1.202  0.5611 -0.6948 -0.3352
 4587SOL     OW15201   0.699   5.055   4.713 -0.0140  0.2636  0.2371
 4587SOL    HW115202   0.662   5.101   4.637 -0.5644  1.6111  1.2850
 4587SOL    HW215203   0.743   4.978   4.675 -1.2134  0.3019 -1.3328
 4588SOL     OW15204   1.044   4.087   6.062  0.5124 -0.3195  0.2793
 4588SOL    HW115205   1.066   4.081   5.969  0.0727  2.5444 -0.0853
 4588SOL    HW215206   0.974   4.151   6.066 -0.2536 -1.2159  2.5176
 4589SOL     OW15207   1.968   4.760   5.917  0.1556  0.3386  0.1206
 4589SOL    HW115208   1.873   4.760   5.935  0.3940  0.3316  1.5265
 4589SOL    HW215209   1.999   4.677   5.953  0.7521  0.5080  0.0043
 4590SOL     OW15210   1.714   4.968  12.233 -0.0278 -0.6063  0.1882
 4590SOL    HW115211   1.708   5.017  12.151  1.6669  0.4463  0.6388
 4590SOL    HW215212   1.649   5.008  12.290  3.2687  3.4854  1.6048
 4591SOL     OW15213   6.937   6.466   8.892 -0.4440 -0.4223  0.1361
 4591SOL    HW115214   6.886   6.530   8.843  0.5113  1.7026  1.7617
 4591SOL    HW215215   6.893   6.382   8.875 -1.9047  0.6597 -1.8584
 4592SOL     OW15216   7.432   4.108   1.897 -0.1303 -0.4112  0.0660
 4592SOL    HW115217   7.405   4.018   1.877  0.0354 -0.8775  1.8241
 4592SOL    HW215218   7.388   4.130   1.978  1.5106  0.3110  0.8208
 4593SOL     OW15219   5.130   2.132   3.247  0.1453 -0.9654  0.1985
 4593SOL    HW115220   5.215   2.100   3.276  0.2362 -0.2107  0.7816
 4593SOL    HW215221   5.102   2.069   3.180  1.3568 -0.9768 -0.3117
 4594SOL     OW15222   3.887   1.523   7.893 -0.0777 -0.0547 -0.3070
 4594SOL    HW115223   3.978   1.550   7.885 -0.0148 -0.0595  0.3660
 4594SOL    HW215224   3.865   1.488   7.807  0.2329  0.9418 -0.8086
 4595SOL     OW15225   7.933   6.434   9.124  0.4274 -0.1248  0.1212
 4595SOL    HW115226   7.998   6.458   9.189  2.0782  1.0416 -1.8589
 4595SOL    HW215227   7.863   6.498   9.135 -0.2899 -1.1410  1.9850
 4596SOL     OW15228   3.989   7.775   1.972 -0.4082 -0.3821 -0.6001
 4596SOL    HW115229   3.981   7.868   1.950 -2.1534 -0.6970 -1.4383
 4596SOL    HW215230   4.015   7.733   1.891 -2.0932 -0.9220 -0.8941
 4597SOL     OW15231   7.114   4.381   6.521 -0.3830  0.2194  0.3656
 4597SOL    HW115232   7.192   4.363   6.572 -0.4379 -0.5501  0.1959
 4597SOL    HW215233   7.134   4.463   6.474 -0.1254  0.6333  1.1777
 4598SOL     OW15234   2.085   6.417   5.099 -0.7468 -0.1166 -0.7306
 4598SOL    HW115235   2.026   6.353   5.138 -1.1723 -1.0125 -2.6868
 4598SOL    HW215236   2.034   6.454   5.026  0.2732  0.8330 -0.9759
 4599SOL     OW15237   5.615   0.764   0.527  0.3112  0.4624 -0.2393
 4599SOL    HW115238   5.691   0.821   0.520  0.8131  0.2122  2.1486
 4599SOL    HW215239   5.641   0.697   0.591 -2.6154  1.7328  2.5421
 4600SOL     OW15240   5.518   4.751   4.741  0.1041 -0.5640  0.2755
 4600SOL    HW115241   5.586   4.810   4.710 -0.8398  0.6149  0.3664
 4600SOL    HW215242   5.555   4.709   4.818  0.8685 -0.2545  0.0879
 4601SOL     OW15243   1.524   2.027   4.864  0.0759  0.3124 -0.6343
 4601SOL    HW115244   1.565   2.030   4.777 -1.0992 -0.3111 -1.2315
 4601SOL    HW215245   1.457   2.096   4.861  0.8182  1.0851  0.2045
 4602SOL     OW15246   5.020   7.279   0.738  0.0906 -0.3478  0.3535
 4602SOL    HW115247   5.003   7.250   0.649  1.6533 -1.3216  0.3292
 4602SOL    HW215248   4.978   7.214   0.794 -0.9140  0.2790  0.3454
 4603SOL     OW15249   0.719   6.599   8.637 -0.9278 -0.6715 -0.1270
 4603SOL    HW115250   0.685   6.646   8.714 -0.5864 -1.6619  0.6405
 4603SOL    HW215251   0.693   6.508   8.651  0.2407 -1.0828 -0.5660
 4604SOL     OW15252   0.327   5.582   5.504 -0.6462  0.0832  0.4957
 4604SOL    HW115253   0.336   5.547   5.416  1.6698 -0.8593  1.0346
 4604SOL    HW215254   0.256   5.531   5.543  0.3565 -1.6655  0.1321
 4605SOL     OW15255   3.634   0.328  11.918 -0.0199 -0.2091  0.7469
 4605SOL    HW115256   3.586   0.353  11.839  1.0658  1.3356  0.5297
 4605SOL    HW215257   3.673   0.244  11.896 -0.2242 -0.0859 -0.1437
 4606SOL     OW15258   1.513   5.021   1.482  0.1015 -0.3336 -0.3024
 4606SOL    HW115259   1.579   5.087   1.460  0.6793 -1.4143 -2.0553
 4606SOL    HW215260   1.470   5.055   1.561  1.1829  1.5164 -0.4489
 4607SOL     OW15261   4.061   1.079   3.708  0.2984  0.0312 -0.2347
 4607SOL    HW115262   3.980   1.050   3.667 -0.1398 -0.8885  1.2157
 4607SOL    HW215263   4.077   1.166   3.670 -1.9679  0.7349  0.2596
 4608SOL     OW15264   2.049   2.681   5.907  0.0949  0.4510 -0.0021
 4608SOL    HW115265   2.031   2.600   5.860  1.6608 -0.1901  0.4471
 4608SOL    HW215266   2.108   2.730   5.850  0.9615  0.2463  0.6975
 4609SOL     OW15267   4.653   5.903   0.831  0.5552 -0.0839  0.0217
 4609SOL    HW115268   4.600   5.928   0.907  0.0567  1.7837 -0.8819
 4609SOL    HW215269   4.742   5.895   0.866  0.1972 -0.1777  0.9645
 4610SOL     OW15270   0.000   6.357   8.266  0.3369  0.7047  0.3940
 4610SOL    HW115271  -0.080   6.384   8.310 -1.9424 -2.8701 -1.0891
 4610SOL    HW215272  -0.000   6.404   8.183  0.3028  1.3993  0.7811
 4611SOL     OW15273   5.447   1.292   5.043  0.1927 -0.5147 -0.0109
 4611SOL    HW115274   5.450   1.324   5.133  1.0927 -2.7076  0.8019
 4611SOL    HW215275   5.511   1.221   5.040  0.8743  0.0868 -2.6513
 4612SOL     OW15276   2.343   1.026   4.339  0.5686 -0.4608  0.0915
 4612SOL    HW115277   2.360   0.996   4.249  3.0198  0.6818  0.1020
 4612SOL    HW215278   2.381   0.957   4.394 -0.3420 -0.8333  0.2763
 4613SOL     OW15279   0.962   3.788   3.386 -0.4453 -0.9059  0.2142
 4613SOL    HW115280   0.881   3.777   3.435 -0.5828 -1.0537 -0.0448
 4613SOL    HW215281   0.937   3.838   3.308 -0.4042 -1.4545 -0.1589
 4614SOL     OW15282   4.954   7.856  11.417  0.3364 -0.2117 -0.1598
 4614SOL    HW115283   4.967   7.766  11.386 -0.8158 -0.0757 -1.1223
 4614SOL    HW215284   4.934   7.847  11.510  1.7369 -0.8090  0.1149
 4615SOL     OW15285   2.686   3.384   2.066  0.2401 -0.7249  0.4381
 4615SOL    HW115286   2.743   3.457   2.091 -1.1756  0.7720 -0.5051
 4615SOL    HW215287   2.723   3.308   2.111  1.6712  0.5919  1.5935
 4616SOL     OW15288   3.752   2.531   6.179 -0.2446  0.2031 -0.2330
 4616SOL    HW115289   3.845   2.533   6.159  1.1148  3.4921  4.5476
 4616SOL    HW215290   3.720   2.618   6.156 -1.2979  0.1764  0.9870
 4617SOL     OW15291   3.303   0.804  11.198 -0.6368 -0.4848  0.1866
 4617SOL    HW115292   3.338   0.749  11.268  1.6482  0.7815  0.1424
 4617SOL    HW215293   3.311   0.893  11.232 -1.5542  0.0078 -0.8528
 4618SOL     OW15294   1.327   1.514   4.235  0.1158  0.7442  0.0250
 4618SOL    HW115295   1.278   1.443   4.193  1.6446 -0.2053 -0.2116
 4618SOL    HW215296   1.321   1.495   4.329  0.2903  0.4576 -0.0214
 4619SOL     OW15297   3.515   7.393   6.394 -0.8554  0.1092 -0.4698
 4619SOL    HW115298   3.464   7.315   6.373  1.3186 -1.5147 -0.1224
 4619SOL    HW215299   3.599   7.378   6.351  0.2222  1.4296  1.0745
 4620SOL     OW15300   6.925   0.987   5.937  0.1701  0.1529  0.0558
 4620SOL    HW115301   7.001   1.035   5.968 -0.4871  1.9915 -0.9931
 4620SOL    HW215302   6.900   0.930   6.010  2.9196 -1.0491  0.1707
 4621SOL     OW15303   2.479   6.117   7.414 -0.4488 -0.0165  0.4102
 4621SOL    HW115304   2.553   6.108   7.474  0.9857  1.3318 -1.0326
 4621SOL    HW215305   2.472   6.031   7.372  1.1058  0.1359 -0.2422
 4622SOL     OW15306   0.802   3.321   5.192 -0.2587  0.3240 -0.2850
 4622SOL    HW115307   0.876   3.299   5.248 -0.5183  0.2099  0.0149
 4622SOL    HW215308   0.742   3.247   5.199 -1.6544  1.5409  1.6042
 4623SOL     OW15309   5.803   4.827   2.528  0.1214 -0.0682  0.2076
 4623SOL    HW115310   5.779   4.766   2.598  1.0213 -0.5824  0.0872
 4623SOL    HW215311   5.742   4.900   2.537 -0.8139 -0.8722  0.5107
 4624SOL     OW15312   6.831   6.114  12.468 -0.1662  0.5974  0.0656
 4624SOL    HW115313   6.925   6.109  12.450 -0.0768  1.5117  0.2206
 4624SOL    HW215314   6.813   6.037  12.522  0.0018 -0.9213 -1.9253
 4625SOL     OW15315   7.108   1.138   9.941 -0.0687  0.2243  0.1440
 4625SOL    HW115316   7.147   1.174   9.862  0.3499 -0.6820 -0.0809
 4625SOL    HW215317   7.025   1.185   9.951  1.4441  2.8521  1.1712
 4626SOL     OW15318   2.675   1.214   6.974 -0.4046  0.2523 -0.4731
 4626SOL    HW115319   2.675   1.186   6.883  0.0091 -0.1815 -0.3405
 4626SOL    HW215320   2.585   1.199   7.004 -0.6336  0.7264 -0.9024
 4627SOL     OW15321   3.671   0.112   6.821 -0.0342 -0.2493  0.0830
 4627SOL    HW115322   3.659   0.193   6.871  0.8897  0.0169 -0.1137
 4627SOL    HW215323   3.602   0.114   6.754 -0.3088  0.1399  0.3788
 4628SOL     OW15324   7.822   2.633   6.903 -0.2738 -0.3912  0.6220
 4628SOL    HW115325   7.807   2.592   6.818  0.0982  3.0469 -1.3208
 4628SOL    HW215326   7.734   2.653   6.935 -0.4427 -2.2838  1.4509
 4629SOL     OW15327   2.479   0.983   1.432 -0.3148 -0.0427  0.6798
 4629SOL    HW115328   2.498   0.926   1.506  0.6604 -2.0847 -1.0406
 4629SOL    HW215329   2.490   0.927   1.355 -0.8998  2.0803 -1.0476
 4630SOL     OW15330   3.189   1.946   4.031  0.6143  0.0632  0.0272
 4630SOL    HW115331   3.102   1.906   4.021 -0.3339  1.3169  2.3801
 4630SOL    HW215332   3.198   2.004   3.956 -0.5563 -0.1224 -0.2778
 4631SOL     OW15333   4.887   5.717   0.210 -0.1652  0.7015 -0.3524
 4631SOL    HW115334   4.839   5.726   0.292  1.7261  1.3888  0.7579
 4631SOL    HW215335   4.876   5.802   0.166 -0.9392  0.4343 -0.6840
 4632SOL     OW15336   4.761   2.997   2.804 -0.3910 -0.1565  0.0245
 4632SOL    HW115337   4.794   3.083   2.827 -0.0286  0.0635 -1.2190
 4632SOL    HW215338   4.728   3.007   2.714  0.6435 -1.5378 -0.5525
 4633SOL     OW15339   5.338   3.913   9.807 -0.1319 -0.3524  0.1534
 4633SOL    HW115340   5.274   3.876   9.746 -1.3228 -1.3585  1.9103
 4633SOL    HW215341   5.375   3.838   9.851  0.3280  0.3680  1.0265
 4634SOL     OW15342   2.338   5.134   0.006  0.1206  0.2535 -0.0907
 4634SOL    HW115343   2.248   5.165   0.019  1.3926  3.4145  2.1948
 4634SOL    HW215344   2.340   5.049   0.050 -1.9426 -0.4185 -1.1253
 4635SOL     OW15345   0.213   1.438  12.014  0.9928  0.3912  0.1174
 4635SOL    HW115346   0.235   1.509  11.955  0.1095  1.4212  0.9851
 4635SOL    HW215347   0.298   1.404  12.044  1.4220  1.5549  0.2441
 4636SOL     OW15348   6.911   1.759  10.137 -0.2649  0.4336 -0.7459
 4636SOL    HW115349   6.981   1.815  10.171  1.5215 -1.5779 -0.8469
 4636SOL    HW215350   6.911   1.774  10.043  0.8154 -0.2933 -0.8886
 4637SOL     OW15351   0.822   1.528   7.453  0.3497 -0.8007  0.1192
 4637SOL    HW115352   0.773   1.448   7.471  0.3954 -0.9143 -0.2494
 4637SOL    HW215353   0.914   1.502   7.457  0.3614 -0.8119 -0.1941
 4638SOL     OW15354   1.772   7.812   0.747  0.0799 -0.5664 -0.7044
 4638SOL    HW115355   1.723   7.820   0.665 -0.9850  1.0330  0.0429
 4638SOL    HW215356   1.794   7.719   0.752 -0.2432 -0.7939 -2.5472
 4639SOL     OW15357   2.845   2.847   1.131  0.5170 -0.8360  0.3020
 4639SOL    HW115358   2.821   2.811   1.046 -2.1844 -1.6878  1.3327
 4639SOL    HW215359   2.813   2.937   1.128 -0.6159 -1.2117  0.7939
 4640SOL     OW15360   4.137   1.652   7.930  0.4322  0.0957 -0.2295
 4640SOL    HW115361   4.092   1.731   7.961 -1.7275 -0.9657 -0.5395
 4640SOL    HW215362   4.187   1.622   8.005  0.6785  1.3183  0.1180
 4641SOL     OW15363   1.717   5.536   2.011  0.3772  0.3564 -0.6332
 4641SOL    HW115364   1.738   5.577   2.095  1.5757 -1.6759  0.1518
 4641SOL    HW215365   1.647   5.475   2.031  0.8007 -0.2784 -1.0525
 4642SOL     OW15366   0.900   7.090   1.676 -0.3841 -0.1514  0.1282
 4642SOL    HW115367   0.896   7.125   1.588 -0.8688 -3.4372 -1.3018
 4642SOL    HW215368   0.994   7.091   1.698 -0.3146  1.1859 -0.1331
 4643SOL     OW15369   3.237   6.504   9.231  1.1267  0.5565 -0.1629
 4643SOL    HW115370   3.311   6.537   9.282  0.1158 -0.7699  2.3432
 4643SOL    HW215371   3.263   6.415   9.207  1.2361  0.8758 -1.3005
 4644SOL     OW15372   7.447   2.595   6.076 -0.3306  0.0296 -0.1888
 4644SOL    HW115373   7.461   2.553   5.991  2.7953  0.2796  0.0707
 4644SOL    HW215374   7.468   2.687   6.060 -0.4879  0.2238  0.6918
 4645SOL     OW15375   4.299   3.413   1.483  0.0605 -0.0621  0.2162
 4645SOL    HW115376   4.355   3.489   1.467  0.6984 -0.3581  0.9584
 4645SOL    HW215377   4.252   3.400   1.401 -1.3580  2.1661  0.5903
 4646SOL     OW15378   2.057   3.359   0.170  0.2742 -0.3517  0.8448
 4646SOL    HW115379   1.983   3.297   0.170  2.0144 -2.5687 -0.1533
 4646SOL    HW215380   2.031   3.427   0.108 -1.5003 -0.2634  1.6042
 4647SOL     OW15381   7.878   1.196   4.818  0.0122 -0.2131  0.2209
 4647SOL    HW115382   7.934   1.121   4.798  1.6652  1.1045 -0.2736
 4647SOL    HW215383   7.796   1.177   4.772  0.2567 -1.8675  0.4062
 4648SOL     OW15384   4.398   7.820   4.549  0.2579  0.0878 -0.7118
 4648SOL    HW115385   4.356   7.760   4.487 -1.2153  0.2303  0.1158
 4648SOL    HW215386   4.396   7.905   4.505  2.7791 -0.4812 -2.0914
 4649SOL     OW15387   5.261   6.709   7.065  0.5350 -0.8397 -0.0983
 4649SOL    HW115388   5.288   6.730   7.154  0.1400 -3.1149  0.6229
 4649SOL    HW215389   5.184   6.764   7.050 -0.0597 -1.1978  1.4069
 4650SOL     OW15390   2.656   0.985   6.310  0.0649  0.1013 -0.0903
 4650SOL    HW115391   2.612   1.019   6.232  0.4555  1.5344  0.2816
 4650SOL    HW215392   2.602   1.015   6.383  0.3406 -0.2263  0.2493
 4651SOL     OW15393   6.724   3.711   3.829 -0.3874 -0.0832 -0.1938
 4651SOL    HW115394   6.744   3.778   3.764 -0.8211  0.0314 -0.2101
 4651SOL    HW215395   6.725   3.759   3.912 -0.7823 -0.0415 -0.2144
 4652SOL     OW15396   7.114   0.078   3.237 -0.2920 -1.2471 -0.5307
 4652SOL    HW115397   7.136   0.039   3.321 -0.0278 -0.5771 -0.2805
 4652SOL    HW215398   7.069   0.160   3.259  1.1171 -0.3120 -1.0287
 4653SOL     OW15399   4.376   6.467   4.596 -0.8423 -0.1696  0.0234
 4653SOL    HW115400   4.383   6.374   4.575 -0.5490 -0.0881 -0.2450
 4653SOL    HW215401   4.438   6.510   4.537 -0.5171  0.1381  0.5801
 4654SOL     OW15402   7.208   1.788  10.968  0.2522  0.0058 -0.2594
 4654SOL    HW115403   7.164   1.714  11.011  2.1726 -1.2417 -0.2517
 4654SOL    HW215404   7.237   1.752  10.884 -0.9553  1.5603 -1.3846
 4655SOL     OW15405   5.302   3.680   8.845  0.2927 -0.1288 -0.2934
 4655SOL    HW115406   5.224   3.628   8.826  0.9813 -0.7211 -1.6653
 4655SOL    HW215407   5.332   3.711   8.760  1.7304 -0.1777  0.1567
 4656SOL     OW15408   3.490   3.708   6.867  0.4291  0.1336  0.5094
 4656SOL    HW115409   3.426   3.639   6.852  1.7472 -1.6845  2.5439
 4656SOL    HW215410   3.438   3.786   6.887 -1.0964 -0.3235 -1.4472
 4657SOL     OW15411   0.619   3.595   7.112  0.3186  0.5310 -0.2005
 4657SOL    HW115412   0.525   3.578   7.106  0.3278 -0.0612  0.9375
 4657SOL    HW215413   0.658   3.538   7.046  0.0633 -1.3315  1.1674
 4658SOL     OW15414   6.203   6.204   8.902  0.4842 -0.0145  0.3833
 4658SOL    HW115415   6.280   6.184   8.955 -0.5509 -0.5758  1.7134
 4658SOL    HW215416   6.166   6.118   8.881 -0.4787  0.2947  0.8082
 4659SOL     OW15417   5.216   2.461  12.235  0.2612  0.2441 -0.0250
 4659SOL    HW115418   5.230   2.394  12.168 -0.9625 -1.2971  1.1871
 4659SOL    HW215419   5.228   2.415  12.318 -1.2830  1.3476  0.8639
 4660SOL     OW15420   2.819   2.850   7.448 -1.1126  0.5883 -0.2708
 4660SOL    HW115421   2.809   2.833   7.542  0.8401 -0.8995 -0.2748
 4660SOL    HW215422   2.832   2.945   7.443 -1.2899  0.7020  0.9437
 4661SOL     OW15423   6.403   7.010   7.653 -0.7980  0.2877 -0.1865
 4661SOL    HW115424   6.491   7.045   7.648 -1.1209  1.3577  0.9922
 4661SOL    HW215425   6.411   6.919   7.626  0.4536  0.6699 -1.1861
 4662SOL     OW15426   5.706   2.356   4.384  0.8078  0.2124  0.2742
 4662SOL    HW115427   5.723   2.404   4.304 -0.2836  0.0103 -0.0975
 4662SOL    HW215428   5.619   2.317   4.371  0.4151  0.5414  1.7208
 4663SOL     OW15429   3.869   3.288  11.474 -0.0013  0.3536  0.0126
 4663SOL    HW115430   3.854   3.380  11.454  1.2744  0.8504  1.1463
 4663SOL    HW215431   3.819   3.272  11.554 -0.0671  0.1079 -0.0744
 4664SOL     OW15432   5.632   6.207  12.183 -0.1115  0.2487 -0.4540
 4664SOL    HW115433   5.721   6.240  12.189 -0.2007  0.4217 -0.0388
 4664SOL    HW215434   5.611   6.178  12.272 -1.0161  1.6410 -0.1847
 4665SOL     OW15435   6.067   0.184   8.191  0.4606 -0.1513  0.0423
 4665SOL    HW115436   5.994   0.239   8.161  0.8091  0.6252  0.5720
 4665SOL    HW215437   6.055   0.101   8.145 -0.0768  0.3691 -0.7948
 4666SOL     OW15438   4.247   0.204  11.332  0.0433  0.1723 -0.6019
 4666SOL    HW115439   4.270   0.262  11.259  0.8616 -2.2383 -2.3800
 4666SOL    HW215440   4.153   0.188  11.319  0.0569  0.2199 -0.7703
 4667SOL     OW15441   3.025   2.258   3.345  0.7373  0.3873  0.0366
 4667SOL    HW115442   3.007   2.229   3.256  3.4163  0.4160 -0.6036
 4667SOL    HW215443   3.003   2.183   3.400 -0.5304  0.2206 -0.6662
 4668SOL     OW15444   5.435   7.099   5.807 -0.2141 -0.6132  0.2143
 4668SOL    HW115445   5.382   7.122   5.883 -0.2311 -0.5185  0.1726
 4668SOL    HW215446   5.518   7.070   5.845  0.3936  1.0421  0.1983
 4669SOL     OW15447   6.885   1.881  11.030 -0.3881  0.0510 -0.1482
 4669SOL    HW115448   6.981   1.891  11.029 -0.5085  2.8392  2.0460
 4669SOL    HW215449   6.869   1.823  11.104 -0.4090  0.1441 -0.0796
 4670SOL     OW15450   2.253   3.710   0.346  0.4897 -0.1095 -0.3488
 4670SOL    HW115451   2.348   3.712   0.349  0.5053  0.1600 -1.0143
 4670SOL    HW215452   2.230   3.617   0.351  0.7832 -0.1764 -0.2644
 4671SOL     OW15453   2.242   4.344   9.441  0.2789 -0.7963  0.0294
 4671SOL    HW115454   2.193   4.416   9.482  1.4396  1.2516 -1.9558
 4671SOL    HW215455   2.174   4.291   9.399 -0.4945  0.3883 -0.2840
 4672SOL     OW15456   3.295   5.112   2.263  0.0240 -0.1128  0.2029
 4672SOL    HW115457   3.254   5.030   2.235  0.8900 -0.3840 -0.2909
 4672SOL    HW215458   3.357   5.086   2.331  0.5073  0.0936 -0.1530
 4673SOL     OW15459   7.882   3.969   9.222 -0.5941 -0.0712 -0.5438
 4673SOL    HW115460   7.932   3.940   9.298  0.1592 -0.2152 -1.0809
 4673SOL    HW215461   7.804   4.010   9.259  0.5858  1.4850  0.3911
 4674SOL     OW15462   2.221   2.136   6.646 -0.0357 -0.2122 -0.4655
 4674SOL    HW115463   2.297   2.120   6.701 -0.9602 -1.4327  0.5389
 4674SOL    HW215464   2.218   2.060   6.587 -0.0268  0.2339 -1.0506
 4675SOL     OW15465   7.570   1.367   6.227 -1.0353  0.3532 -0.2412
 4675SOL    HW115466   7.613   1.452   6.214 -1.0119  0.3592 -0.1212
 4675SOL    HW215467   7.610   1.310   6.161 -1.4255  0.5748 -0.6684
 4676SOL     OW15468   3.464   1.161   0.910  0.0964 -0.1795 -0.1060
 4676SOL    HW115469   3.528   1.117   0.854  1.4465  1.5229  0.0248
 4676SOL    HW215470   3.413   1.216   0.851  1.8579  2.0154  0.2908
 4677SOL     OW15471   0.183   2.884   3.195 -0.2973  0.2720 -0.1994
 4677SOL    HW115472   0.202   2.955   3.133  1.0534  1.5365  1.5673
 4677SOL    HW215473   0.088   2.887   3.205 -0.2656  1.9852 -0.0320
 4678SOL     OW15474   6.753   2.895   6.590  0.0211 -0.4016 -0.0050
 4678SOL    HW115475   6.768   2.973   6.645  2.0743 -1.1937  0.6689
 4678SOL    HW215476   6.681   2.920   6.532  1.3544  2.4658 -0.6329
 4679SOL     OW15477   1.965   3.357   7.300  0.7317 -0.4799 -0.0429
 4679SOL    HW115478   1.884   3.361   7.349  0.4316  1.0849 -0.6188
 4679SOL    HW215479   2.004   3.444   7.309  2.6888 -1.3701  0.7646
 4680SOL     OW15480   5.415   5.987  10.454  0.3227 -0.3358  0.2833
 4680SOL    HW115481   5.399   5.965  10.546  0.5677 -0.5727  0.2707
 4680SOL    HW215482   5.460   6.071  10.457  0.9104 -0.6446  0.4171
 4681SOL     OW15483   6.807   6.566   3.250  0.1813 -0.1854  0.1736
 4681SOL    HW115484   6.882   6.596   3.300 -1.4004  0.9506  2.0011
 4681SOL    HW215485   6.737   6.555   3.314 -1.9292  1.1692 -1.7093
 4682SOL     OW15486   2.415   1.285   2.557 -0.5196  0.1042  0.3641
 4682SOL    HW115487   2.393   1.201   2.596 -1.8596  0.9893  1.6402
 4682SOL    HW215488   2.375   1.283   2.471 -1.1301 -0.3171  0.6501
 4683SOL     OW15489   5.724   0.210   6.497  0.6459  0.0136  0.3710
 4683SOL    HW115490   5.792   0.260   6.453  0.9688 -1.6008 -1.0668
 4683SOL    HW215491   5.642   0.248   6.465  0.8587  0.7780  0.7068
 4684SOL     OW15492   3.603   6.269  10.852 -0.2910  0.2106  0.0366
 4684SOL    HW115493   3.643   6.225  10.777  2.1085  1.2542  0.5989
 4684SOL    HW215494   3.584   6.198  10.914 -0.7434 -0.4772 -0.8733
 4685SOL     OW15495   5.323   3.349   3.453  0.3895 -0.1289 -0.0515
 4685SOL    HW115496   5.381   3.293   3.504  2.2316  1.1958 -0.5554
 4685SOL    HW215497   5.249   3.367   3.512  1.9492  0.5371  1.8313
 4686SOL     OW15498   0.587   3.973  12.223  0.3715  0.4852  0.6436
 4686SOL    HW115499   0.621   4.017  12.145 -0.3487  0.3092  0.2263
 4686SOL    HW215500   0.570   3.883  12.195  0.7642  0.2234  1.1962
 4687SOL     OW15501   7.111   3.876  10.740 -0.3133  0.0264  0.1883
 4687SOL    HW115502   7.035   3.904  10.689 -0.1420  0.6817  0.2835
 4687SOL    HW215503   7.109   3.932  10.818 -0.3822 -0.7349  0.7366
 4688SOL     OW15504   5.078   6.369   4.564  0.1871 -0.1776  0.3814
 4688SOL    HW115505   5.007   6.337   4.620 -3.1403  0.1257 -3.2348
 4688SOL    HW215506   5.136   6.294   4.554 -0.6273 -1.0674  1.9822
 4689SOL     OW15507   2.927   5.581  12.028  0.1186 -0.4102  0.3943
 4689SOL    HW115508   2.993   5.649  12.018  0.8057 -1.1610 -0.3270
 4689SOL    HW215509   2.882   5.603  12.110  1.4579 -0.0435  1.0542
 4690SOL     OW15510   0.880   2.765   4.058 -0.6436  0.4046 -0.4617
 4690SOL    HW115511   0.961   2.770   4.007 -0.5036 -0.2411 -0.3049
 4690SOL    HW215512   0.835   2.688   4.023 -2.0574  1.7752 -1.8098
 4691SOL     OW15513   5.271   2.830   9.244  0.0969  0.1254 -0.1910
 4691SOL    HW115514   5.361   2.836   9.212  0.6625 -0.1515  1.2421
 4691SOL    HW215515   5.280   2.801   9.335 -1.4286  0.4659  0.1018
 4692SOL     OW15516   2.839   3.190   2.175 -0.3157 -0.4335  0.0638
 4692SOL    HW115517   2.929   3.156   2.180  0.0904  0.3772 -1.2015
 4692SOL    HW215518   2.785   3.113   2.159  0.3757 -0.7245 -0.9410
 4693SOL     OW15519   5.639   3.215   7.078 -0.0881 -0.5536  0.5102
 4693SOL    HW115520   5.672   3.199   6.989  1.3576  1.4635  0.6284
 4693SOL    HW215521   5.573   3.283   7.067  0.1563 -0.2387  1.0034
 4694SOL     OW15522   7.286   4.485  10.930  0.2905  0.7126  0.2039
 4694SOL    HW115523   7.370   4.445  10.950  1.2782  2.5668 -0.0344
 4694SOL    HW215524   7.305   4.551  10.864 -1.6247  0.1666 -0.9871
 4695SOL     OW15525   2.264   1.042   0.622  0.0099 -0.2188 -0.1275
 4695SOL    HW115526   2.298   1.115   0.673  0.3492  0.0753 -0.7523
 4695SOL    HW215527   2.341   0.988   0.604  0.1777  0.4395 -1.5357
 4696SOL     OW15528   5.529   3.055   6.691 -0.3516 -0.5812 -0.8426
 4696SOL    HW115529   5.551   3.007   6.771  1.7510 -1.8060 -2.0479
 4696SOL    HW215530   5.585   3.133   6.694 -1.6304  0.3562 -0.2895
 4697SOL     OW15531   7.101   1.332   1.761  0.2247  0.2160 -0.0137
 4697SOL    HW115532   7.096   1.261   1.824 -0.3696  1.5364  1.4831
 4697SOL    HW215533   7.016   1.332   1.717  0.6906 -0.7967 -0.9790
 4698SOL     OW15534   2.396   4.122   1.737 -0.1166  0.0193 -0.7309
 4698SOL    HW115535   2.316   4.168   1.762  0.0235  0.0515 -0.3206
 4698SOL    HW215536   2.366   4.044   1.691 -0.4050 -0.2649 -0.0765
 4699SOL     OW15537   2.434   4.113   6.741 -0.9545  0.2185  0.4988
 4699SOL    HW115538   2.368   4.052   6.706 -1.4226 -0.7863  2.8917
 4699SOL    HW215539   2.494   4.057   6.790  1.0217  1.2749 -0.6025
 4700SOL     OW15540   1.706   7.643   3.153  0.7888 -0.4786 -0.5386
 4700SOL    HW115541   1.697   7.624   3.246  1.5646 -0.6345 -0.4861
 4700SOL    HW215542   1.697   7.558   3.109  0.5471 -0.4238 -0.5963
 4701SOL     OW15543   5.192   0.658   0.105  0.0401 -0.0119 -0.7227
 4701SOL    HW115544   5.124   0.621   0.048 -0.6430  0.1129 -0.0049
 4701SOL    HW215545   5.214   0.586   0.165  0.6009 -0.0772 -1.0050
 4702SOL     OW15546   7.698   2.068   9.757 -0.5038 -0.3672 -0.8147
 4702SOL    HW115547   7.721   2.000   9.819 -0.0601  0.0003 -0.5692
 4702SOL    HW215548   7.781   2.091   9.714 -0.5982  0.2079 -0.7017
 4703SOL     OW15549   7.932   1.815  10.558 -0.1560 -0.2761 -0.1283
 4703SOL    HW115550   7.908   1.757  10.486  0.1747 -0.2848 -0.2336
 4703SOL    HW215551   7.856   1.872  10.570  0.1195  0.3057 -1.0617
 4704SOL     OW15552   3.781   5.540   4.930  0.7658 -0.6290  0.4615
 4704SOL    HW115553   3.815   5.493   5.006  2.2182 -0.1618  0.1261
 4704SOL    HW215554   3.842   5.612   4.917  1.1537 -1.2729 -1.7521
 4705SOL     OW15555   2.295   3.683   6.930  0.1296 -0.1488 -0.1452
 4705SOL    HW115556   2.315   3.770   6.964 -1.4575 -0.0582  0.6465
 4705SOL    HW215557   2.374   3.631   6.947  0.9921  1.0440 -0.3832
 4706SOL     OW15558   0.622   2.514   0.144 -0.1410  0.3895  0.4764
 4706SOL    HW115559   0.563   2.444   0.115 -0.8985  1.6218 -1.1087
 4706SOL    HW215560   0.703   2.469   0.167 -1.3639 -1.2606  1.8416
 4707SOL     OW15561   4.124   2.056   0.967 -0.5092  0.4820  0.0209
 4707SOL    HW115562   4.033   2.041   0.992  0.0249 -0.6402  1.4452
 4707SOL    HW215563   4.167   1.972   0.982  0.5754  0.7031 -1.6024
 4708SOL     OW15564   7.760   1.432  11.155 -0.2930 -0.6950  0.1092
 4708SOL    HW115565   7.795   1.376  11.225 -0.6802  0.2162  1.0631
 4708SOL    HW215566   7.820   1.506  11.150 -0.2947 -0.7267 -0.5054
 4709SOL     OW15567   4.468   2.384   7.372 -0.2418 -0.0411  0.0635
 4709SOL    HW115568   4.554   2.356   7.339 -0.3637  0.6810 -0.9013
 4709SOL    HW215569   4.433   2.441   7.303 -0.6937  1.1705  1.2525
 4710SOL     OW15570   4.528   0.288   9.214  0.1209 -0.2972 -0.4712
 4710SOL    HW115571   4.580   0.366   9.229 -2.0479  1.0387  0.6129
 4710SOL    HW215572   4.592   0.217   9.209  2.1756  1.5313 -1.7059
 4711SOL     OW15573   0.748   6.176  10.854 -0.3464  0.6431 -0.3389
 4711SOL    HW115574   0.837   6.191  10.823  0.8836  1.0830  2.9721
 4711SOL    HW215575   0.717   6.100  10.805  1.8633  0.4465 -1.5395
 4712SOL     OW15576   2.296   6.204  12.023 -0.3001 -0.2545 -0.4611
 4712SOL    HW115577   2.201   6.203  12.020 -0.4154  0.6015  1.2979
 4712SOL    HW215578   2.318   6.151  12.099  0.4271  1.8765  0.9348
 4713SOL     OW15579   0.226   4.486   5.863  0.5986  0.2209 -0.7910
 4713SOL    HW115580   0.241   4.391   5.868 -1.2997 -0.0882 -0.1937
 4713SOL    HW215581   0.277   4.522   5.935 -0.1061 -0.5692  0.1262
 4714SOL     OW15582   5.372   3.042  11.989 -0.0511 -0.1232  1.0529
 4714SOL    HW115583   5.346   2.962  11.945 -0.3650 -0.2550  1.4770
 4714SOL    HW215584   5.462   3.026  12.017  0.8410  0.6405 -1.1468
 4715SOL     OW15585   2.098   6.875   2.755 -0.0270 -0.0207 -0.3953
 4715SOL    HW115586   2.080   6.943   2.820  0.8783  0.6790 -0.8652
 4715SOL    HW215587   2.022   6.817   2.761 -0.7066  0.8886  0.1888
 4716SOL     OW15588   0.835   1.969  11.877 -0.7941  0.4447 -0.1671
 4716SOL    HW115589   0.814   2.051  11.922  1.0675  0.7887  0.1616
 4716SOL    HW215590   0.909   1.933  11.926 -0.1388 -0.2921 -1.6308
 4717SOL     OW15591   1.480   3.934   1.965 -0.2527 -0.7771 -0.1735
 4717SOL    HW115592   1.431   3.853   1.978  0.0445 -0.8856  0.3148
 4717SOL    HW215593   1.549   3.931   2.032 -0.4521  0.0424  0.0770
 4718SOL     OW15594   6.295   2.508   9.829 -0.1399 -0.3004  0.0682
 4718SOL    HW115595   6.314   2.588   9.781 -0.2787  1.1877  2.3410
 4718SOL    HW215596   6.289   2.440   9.761 -0.7776  1.7082 -2.0092
 4719SOL     OW15597   7.034   5.679   4.060 -0.2499  0.3974  0.5516
 4719SOL    HW115598   6.996   5.692   4.147 -1.2570  1.2138  0.0161
 4719SOL    HW215599   6.957   5.671   4.003  0.2439 -3.4745  0.1303
 4720SOL     OW15600   6.112   1.507   5.904 -0.0072  0.1254 -0.0614
 4720SOL    HW115601   6.100   1.437   5.968  1.2204  0.4684  0.5712
 4720SOL    HW215602   6.062   1.580   5.938  1.0712  0.4788  0.8094
 4721SOL     OW15603   3.415   5.321   3.865 -0.2284 -0.6121 -1.2456
 4721SOL    HW115604   3.393   5.412   3.887  0.1140 -0.7504 -0.3017
 4721SOL    HW215605   3.372   5.268   3.932 -0.7866 -1.1946 -2.0409
 4722SOL     OW15606   2.512   2.459   8.699  0.4347  0.1745 -0.1158
 4722SOL    HW115607   2.423   2.472   8.730  0.4662  0.1331 -0.0062
 4722SOL    HW215608   2.558   2.539   8.725  0.1570  0.6927 -1.1767
 4723SOL     OW15609   3.754   5.267   0.107 -0.3243 -0.4067 -0.0575
 4723SOL    HW115610   3.712   5.348   0.080  1.9830  1.3104  1.1588
 4723SOL    HW215611   3.809   5.243   0.033  1.3165  0.8952  0.6860
 4724SOL     OW15612   3.268   6.769   1.785 -0.2534 -0.1391 -0.3706
 4724SOL    HW115613   3.357   6.773   1.748 -0.6550 -1.0597 -1.5196
 4724SOL    HW215614   3.264   6.842   1.846  1.0714  0.3407 -0.8135
 4725SOL     OW15615   5.850   4.397   0.393  0.2081  0.4116 -0.1666
 4725SOL    HW115616   5.777   4.459   0.402  0.1206  0.4389 -0.9998
 4725SOL    HW215617   5.908   4.438   0.329 -1.1739 -1.5437 -2.8788
 4726SOL     OW15618   2.111   2.460  10.309 -0.2617 -0.1753  0.0443
 4726SOL    HW115619   2.187   2.491  10.360 -0.5432  1.1679 -0.3162
 4726SOL    HW215620   2.035   2.496  10.356 -0.7656 -2.1249  0.8349
 4727SOL     OW15621   3.897   4.272  11.792 -0.0513  0.0115  0.0569
 4727SOL    HW115622   3.813   4.234  11.819  0.3168 -0.0302  1.1911
 4727SOL    HW215623   3.926   4.322  11.868  1.1252 -0.2595 -0.1949
 4728SOL     OW15624   3.344   7.007   4.118  0.1424 -0.0140 -0.0670
 4728SOL    HW115625   3.385   7.093   4.124 -0.9894  0.6206 -0.9319
 4728SOL    HW215626   3.332   6.979   4.209  1.9164  0.0263  0.2039
 4729SOL     OW15627   7.380   0.756  12.122  0.4497  0.1433 -0.3871
 4729SOL    HW115628   7.321   0.715  12.057  0.1422  0.1349 -0.1047
 4729SOL    HW215629   7.454   0.696  12.127 -1.1110 -1.8253  1.9061
 4730SOL     OW15630   6.289   6.759  10.670 -0.3871 -0.1472 -0.0969
 4730SOL    HW115631   6.252   6.745  10.583 -0.0830 -1.2579 -0.0676
 4730SOL    HW215632   6.382   6.773  10.654 -0.1555 -1.3623  0.1068
 4731SOL     OW15633   1.179   7.175   4.876  0.3637  0.7993  0.0881
 4731SOL    HW115634   1.100   7.206   4.833 -0.5370 -1.4655 -0.0119
 4731SOL    HW215635   1.251   7.203   4.819 -0.6432 -0.1672 -1.7228
 4732SOL     OW15636   3.481   6.500   4.241  0.0978 -0.5554  0.1892
 4732SOL    HW115637   3.552   6.542   4.288 -0.1788  0.9004 -0.6342
 4732SOL    HW215638   3.516   6.415   4.215  1.2680 -0.1621  0.4235
 4733SOL     OW15639   7.917   5.926   3.304 -0.0659  0.5971  0.4690
 4733SOL    HW115640   7.988   5.962   3.358 -0.4849 -0.1439  1.5458
 4733SOL    HW215641   7.895   5.997   3.243  1.2249  1.0231  0.4732
 4734SOL     OW15642   3.399   1.453  11.870  0.6034  0.1816  0.7234
 4734SOL    HW115643   3.457   1.430  11.943  0.5919 -0.1170  0.6382
 4734SOL    HW215644   3.344   1.376  11.857  0.0606  0.5256  0.9191
 4735SOL     OW15645   1.019   0.277   0.044  0.1015  0.1915 -0.2733
 4735SOL    HW115646   1.077   0.341   0.002  0.8366 -0.8251 -0.8413
 4735SOL    HW215647   0.942   0.327   0.069  0.9517  1.4507 -0.0849
 4736SOL     OW15648   7.328   4.224  11.275 -0.3290 -0.1471 -0.2242
 4736SOL    HW115649   7.257   4.255  11.218  0.8500  2.2742 -0.5162
 4736SOL    HW215650   7.380   4.302  11.292  1.0794 -1.4327  1.7348
 4737SOL     OW15651   5.888   5.757   2.867  0.3863 -0.1059 -0.1460
 4737SOL    HW115652   5.829   5.728   2.937 -1.5992  2.6207 -0.5121
 4737SOL    HW215653   5.947   5.819   2.909  1.5943 -1.1541 -0.2364
 4738SOL     OW15654   5.248   2.781   7.454 -0.1722  0.1727  0.3258
 4738SOL    HW115655   5.291   2.771   7.369 -0.8899 -1.7773  0.1416
 4738SOL    HW215656   5.296   2.723   7.512 -0.2150  0.8610  1.0623
 4739SOL     OW15657   5.791   2.186  11.595  0.0122  0.0286  0.0401
 4739SOL    HW115658   5.702   2.151  11.597  0.7679 -2.1579 -1.0558
 4739SOL    HW215659   5.792   2.253  11.663 -3.1322  1.9190 -1.5321
 4740SOL     OW15660   5.098   0.836   3.025  0.4447 -0.2170  0.1826
 4740SOL    HW115661   5.039   0.906   2.997  1.0835 -0.2645 -1.3832
 4740SOL    HW215662   5.045   0.756   3.022  0.1032 -0.0054  0.5678
 4741SOL     OW15663   4.460   7.065   5.273 -0.6261 -0.2981 -0.2728
 4741SOL    HW115664   4.401   7.016   5.330 -0.4197 -0.3496 -0.1041
 4741SOL    HW215665   4.413   7.072   5.190  0.2516 -2.7162 -1.0387
 4742SOL     OW15666   1.066   0.331   9.712  0.0575  0.1587 -0.1970
 4742SOL    HW115667   1.128   0.395   9.746 -2.1085  1.7802  1.0013
 4742SOL    HW215668   0.989   0.339   9.769 -1.3718 -1.5525 -1.7276
 4743SOL     OW15669   6.416   5.655  10.386 -0.5682 -0.1285  0.2278
 4743SOL    HW115670   6.353   5.601  10.336 -0.9539  0.2184  0.3336
 4743SOL    HW215671   6.409   5.623  10.475  0.2575 -0.8746  0.0336
 4744SOL     OW15672   3.805   0.302  11.498 -0.2630  0.0948  0.4317
 4744SOL    HW115673   3.711   0.287  11.503 -0.4185  0.9872  0.3640
 4744SOL    HW215674   3.814   0.397  11.490  0.6007 -0.0605 -0.7617
 4745SOL     OW15675   6.382   5.041   3.492 -0.1274 -0.6147 -0.2980
 4745SOL    HW115676   6.328   5.112   3.456 -1.5293 -1.2389  0.4916
 4745SOL    HW215677   6.319   4.975   3.519  1.0481 -1.2842  0.8960
 4746SOL     OW15678   0.501   3.875   8.092 -0.2427 -0.9241 -0.0207
 4746SOL    HW115679   0.414   3.909   8.072 -0.2462 -0.7755  0.2476
 4746SOL    HW215680   0.548   3.880   8.009 -1.2078 -3.2274 -0.7958
 4747SOL     OW15681   2.460   0.135   1.787 -0.3675  0.1089 -0.2908
 4747SOL    HW115682   2.514   0.167   1.715  1.0883  0.4669  0.9325
 4747SOL    HW215683   2.479   0.041   1.792  0.3513  0.2839  0.3085
 4748SOL     OW15684   1.481   2.890   2.165 -0.0912  0.5210  0.2521
 4748SOL    HW115685   1.516   2.830   2.099  0.2763  1.8781 -0.8260
 4748SOL    HW215686   1.392   2.908   2.136 -0.2933  0.3006  0.7229
 4749SOL     OW15687   6.680   0.089   4.121 -0.3509 -0.3426  0.0566
 4749SOL    HW115688   6.600   0.129   4.156  0.1613 -1.3394  2.5499
 4749SOL    HW215689   6.652   0.003   4.089 -0.2793 -0.7045  0.9571
 4750SOL     OW15690   3.256   1.417   7.589 -0.0853  0.5602  0.4782
 4750SOL    HW115691   3.213   1.502   7.580 -1.7723 -0.3851 -1.0986
 4750SOL    HW215692   3.189   1.360   7.628  0.2918 -0.5510 -0.4549
 4751SOL     OW15693   1.613   0.015   3.389  0.2314 -0.9385  0.0453
 4751SOL    HW115694   1.625  -0.071   3.430  0.1511 -1.3198 -0.7217
 4751SOL    HW215695   1.621  -0.001   3.295 -0.3711 -0.2068 -0.1471
 4752SOL     OW15696   7.761   3.005   4.316 -0.0807 -0.2618 -0.2985
 4752SOL    HW115697   7.726   2.918   4.298  0.4626 -0.4274 -0.5599
 4752SOL    HW215698   7.691   3.065   4.290 -0.4064 -0.6125 -0.2379
 4753SOL     OW15699   1.354   1.640   4.710 -0.1754  0.3336  0.3599
 4753SOL    HW115700   1.404   1.714   4.742  0.3152  0.3722 -0.4561
 4753SOL    HW215701   1.349   1.580   4.784  1.5015  0.1150  0.3342
 4754SOL     OW15702   1.386   4.867   2.978 -0.0782  0.1971  0.0661
 4754SOL    HW115703   1.427   4.859   3.064 -0.7603  0.5455  0.4339
 4754SOL    HW215704   1.458   4.885   2.919  0.4996 -0.8238  0.4355
 4755SOL     OW15705   7.442   7.918   1.705 -0.4274  0.3452 -0.1376
 4755SOL    HW115706   7.508   7.891   1.769 -1.0982 -0.1268  0.3686
 4755SOL    HW215707   7.432   7.842   1.647 -0.1155  0.6268 -0.5742
 4756SOL     OW15708   7.592   4.188  10.095 -0.3147  0.1846 -0.4367
 4756SOL    HW115709   7.546   4.167  10.176 -2.7507 -1.6132 -2.1633
 4756SOL    HW215710   7.564   4.277  10.074 -0.9155  0.0791 -0.1065
 4757SOL     OW15711   2.778   7.762  12.456 -0.3607  0.0698 -0.1182
 4757SOL    HW115712   2.856   7.802  12.418 -0.2226 -0.0587  0.0269
 4757SOL    HW215713   2.705   7.808  12.415 -0.2048  1.1679  0.7929
 4758SOL     OW15714   1.988   7.172   9.876  0.0508 -0.2761 -0.2696
 4758SOL    HW115715   1.983   7.140   9.966 -0.1420  0.3763 -0.0442
 4758SOL    HW215716   1.920   7.239   9.871  0.1972 -0.1691 -0.8467
 4759SOL     OW15717   7.663   7.419   8.020 -0.1325 -0.1644  0.0412
 4759SOL    HW115718   7.733   7.482   8.039 -0.8318  0.5189  0.4387
 4759SOL    HW215719   7.687   7.340   8.068  0.3588  0.0664  0.1765
 4760SOL     OW15720   0.338   3.047   1.268  0.2042  0.0772 -0.2819
 4760SOL    HW115721   0.322   3.107   1.340  0.5825 -0.3642  0.1767
 4760SOL    HW215722   0.253   3.006   1.251 -0.0336  0.6565 -0.5341
 4761SOL     OW15723   5.917   1.940   1.165 -0.3478  0.3197  0.0365
 4761SOL    HW115724   5.933   1.868   1.226  1.0749 -2.0562 -2.8852
 4761SOL    HW215725   5.822   1.941   1.155 -0.5259  0.0652  1.4290
 4762SOL     OW15726   5.363   5.330   0.939 -0.3009  0.4798  0.3342
 4762SOL    HW115727   5.390   5.244   0.905  0.3432  0.7235  0.2018
 4762SOL    HW215728   5.293   5.311   1.001 -0.4199 -0.1093  0.0267
 4763SOL     OW15729   4.476   7.459  10.937 -0.0326 -0.4917 -0.5123
 4763SOL    HW115730   4.540   7.449  10.867  1.7029 -0.8539  1.0689
 4763SOL    HW215731   4.466   7.554  10.947 -0.1288 -0.4347 -1.0746
 4764SOL     OW15732   3.464   1.954   1.724 -0.0668  0.3135 -0.9772
 4764SOL    HW115733   3.488   1.944   1.816 -1.4939 -1.3763 -0.7403
 4764SOL    HW215734   3.513   2.031   1.695  0.4106  0.8948  1.1822
 4765SOL     OW15735   1.836   4.475  11.726 -0.0929 -0.0632 -0.0403
 4765SOL    HW115736   1.897   4.410  11.691 -0.0564 -0.4407  0.7042
 4765SOL    HW215737   1.760   4.424  11.753 -0.3742  0.2983 -0.1497
 4766SOL     OW15738   3.894   2.262   0.766 -0.2777  0.0921 -0.1128
 4766SOL    HW115739   3.825   2.327   0.777  1.1386  1.2277  3.3831
 4766SOL    HW215740   3.867   2.188   0.821  0.6825  0.0272  0.2842
 4767SOL     OW15741   7.566   5.472   4.816  0.1125  0.8227 -0.2946
 4767SOL    HW115742   7.575   5.526   4.738 -0.0682 -1.8307 -2.3020
 4767SOL    HW215743   7.656   5.463   4.849  0.2345  1.6928 -0.3680
 4768SOL     OW15744   6.765   0.295   7.671 -0.3546  0.1561  0.5774
 4768SOL    HW115745   6.748   0.388   7.686 -3.4656 -0.0157 -1.0134
 4768SOL    HW215746   6.686   0.251   7.703 -0.0539 -1.6560 -0.9817
 4769SOL     OW15747   6.339   1.734   2.225  0.4240 -0.6242 -0.7978
 4769SOL    HW115748   6.341   1.661   2.286 -0.7468 -0.0119 -0.0084
 4769SOL    HW215749   6.254   1.727   2.181 -0.0641  0.7331 -0.1074
 4770SOL     OW15750   4.376   1.622  11.376  0.5890 -0.3329  0.1384
 4770SOL    HW115751   4.382   1.663  11.463  1.0692  0.6855 -0.3558
 4770SOL    HW215752   4.291   1.652  11.343 -0.0029 -1.4455  0.5925
 4771SOL     OW15753   5.688   0.710   3.201 -0.8270 -0.1385 -0.0955
 4771SOL    HW115754   5.736   0.659   3.137 -2.4341  0.0100 -1.5017
 4771SOL    HW215755   5.754   0.738   3.264  0.8981 -0.0218 -1.8537
 4772SOL     OW15756   7.897   7.955  11.140 -0.7344  0.2023  0.0685
 4772SOL    HW115757   7.826   7.904  11.178 -0.3538 -0.6365 -0.3145
 4772SOL    HW215758   7.951   7.981  11.215 -0.9016 -0.0100  0.2631
 4773SOL     OW15759   0.045   5.018   8.895  0.2870  0.3565  0.1074
 4773SOL    HW115760   0.106   5.054   8.830  0.0326 -1.6356 -1.3203
 4773SOL    HW215761   0.101   4.982   8.963  0.5541  2.8979  1.3679
 4774SOL     OW15762   1.575   4.282   5.002  0.6830 -0.6679  0.0535
 4774SOL    HW115763   1.585   4.336   5.081 -2.5460  0.0284  0.1497
 4774SOL    HW215764   1.604   4.195   5.029 -0.8218 -0.5796  2.2627
 4775SOL     OW15765   0.701   7.463   9.901  0.1841 -0.2059  0.2884
 4775SOL    HW115766   0.782   7.416   9.923  0.1006 -0.7586 -0.5543
 4775SOL    HW215767   0.708   7.546   9.948  0.6831 -0.7463  1.2000
 4776SOL     OW15768   6.381   2.128   4.798 -0.4374 -0.1125 -0.3090
 4776SOL    HW115769   6.296   2.135   4.754 -0.8064  1.2294  0.5566
 4776SOL    HW215770   6.433   2.071   4.740 -1.6084 -0.1939 -1.3315
 4777SOL     OW15771   0.416   7.208   2.153 -0.0009  0.1369 -0.0530
 4777SOL    HW115772   0.348   7.154   2.192 -0.3727  1.2796  0.9593
 4777SOL    HW215773   0.371   7.289   2.128  0.6603  0.2437 -0.9616
 4778SOL     OW15774   4.485   5.150   7.251 -0.4635  0.2749  0.1172
 4778SOL    HW115775   4.499   5.151   7.157 -1.6547  1.5149 -0.0861
 4778SOL    HW215776   4.550   5.211   7.287  1.5070 -1.8574  0.4120
 4779SOL     OW15777   0.773   5.247   1.402 -0.1977  0.4089 -0.0346
 4779SOL    HW115778   0.843   5.211   1.349 -0.0623  0.2068  0.2762
 4779SOL    HW215779   0.717   5.171   1.423  0.9780  0.0425  1.9931
 4780SOL     OW15780   1.761   3.670  11.481 -0.2209 -0.1281 -0.8351
 4780SOL    HW115781   1.667   3.658  11.489 -0.3226  0.8374 -0.3495
 4780SOL    HW215782   1.795   3.654  11.569 -0.3507  2.6562 -0.1842
 4781SOL     OW15783   6.311   4.537   6.450  0.2566 -0.0638  0.0678
 4781SOL    HW115784   6.222   4.571   6.462 -0.1723 -1.6455  1.8019
 4781SOL    HW215785   6.367   4.612   6.469 -0.6938  0.8631 -0.6650
 4782SOL     OW15786   3.482   5.613   8.468  0.8759 -0.7512  0.1041
 4782SOL    HW115787   3.496   5.518   8.463  2.3208 -0.4812 -2.3816
 4782SOL    HW215788   3.420   5.631   8.397  1.3677  0.2813 -0.0770
 4783SOL     OW15789   0.773   3.753   6.903  0.7075 -0.2639  0.1424
 4783SOL    HW115790   0.686   3.714   6.894  0.8164 -0.1993 -1.5473
 4783SOL    HW215791   0.759   3.847   6.892  1.0418 -0.3071 -0.7942
 4784SOL     OW15792   5.042   0.740   8.452  0.2861 -0.4237 -0.1794
 4784SOL    HW115793   5.043   0.704   8.541  0.9573 -0.8096 -0.3361
 4784SOL    HW215794   5.042   0.663   8.395 -4.4736 -0.4086 -0.6254
 4785SOL     OW15795   6.361   1.600   5.423 -0.2262 -0.2746 -1.0101
 4785SOL    HW115796   6.317   1.523   5.387  0.1222  0.0579 -2.1970
 4785SOL    HW215797   6.454   1.578   5.418 -0.1823 -1.3194  2.2518
 4786SOL     OW15798   2.053   5.515   0.981 -0.1795 -0.1979  0.0053
 4786SOL    HW115799   2.020   5.599   1.012 -0.0108 -0.3191  0.5162
 4786SOL    HW215800   1.984   5.483   0.922  0.3181  0.8651 -1.1792
 4787SOL     OW15801   0.156   6.935   5.426  0.0807 -0.1581 -0.0714
 4787SOL    HW115802   0.132   6.946   5.519 -0.6258  0.5333 -0.3244
 4787SOL    HW215803   0.073   6.945   5.379  0.7881  1.9858 -0.9663
 4788SOL     OW15804   0.566   0.665   8.788 -0.3339 -0.1290 -0.4675
 4788SOL    HW115805   0.553   0.760   8.784 -2.1283 -0.1694  1.9011
 4788SOL    HW215806   0.644   0.654   8.843 -0.1808 -0.0128 -0.6630
 4789SOL     OW15807   5.968   5.536   3.925  0.2389  0.7839  0.4595
 4789SOL    HW115808   5.884   5.534   3.972 -0.1600  0.6844 -0.2441
 4789SOL    HW215809   5.988   5.444   3.908  0.3982  0.8190  0.4541
 4790SOL     OW15810   2.199   5.646  11.407  0.6478 -0.2402 -0.0637
 4790SOL    HW115811   2.253   5.722  11.384 -1.2841  1.6606  1.2400
 4790SOL    HW215812   2.211   5.636  11.501  2.0066 -2.5779 -0.4239
 4791SOL     OW15813   6.799   4.194   0.156  0.4800  0.3483  0.2649
 4791SOL    HW115814   6.857   4.173   0.229  0.7640 -2.6093 -0.6689
 4791SOL    HW215815   6.715   4.153   0.181  0.3854 -0.0789 -0.7254
 4792SOL     OW15816   0.689   7.428   0.805 -0.1301 -0.7306  0.4086
 4792SOL    HW115817   0.707   7.522   0.813  2.4794 -0.9808 -1.2316
 4792SOL    HW215818   0.596   7.419   0.827 -1.5090  2.7663 -2.8095
 4793SOL     OW15819   3.823   2.336  11.864  0.5536  0.6516 -0.1696
 4793SOL    HW115820   3.836   2.289  11.782  1.8818  1.0732 -0.2234
 4793SOL    HW215821   3.838   2.271  11.932 -3.5542 -0.5606 -0.1069
 4794SOL     OW15822   6.338   5.968   1.784  0.6189  0.0594 -0.0238
 4794SOL    HW115823   6.297   5.999   1.703 -0.6876  1.0423  0.9674
 4794SOL    HW215824   6.402   6.035   1.806  0.2471  0.3151  0.2895
 4795SOL     OW15825   5.202   1.961   1.411  0.0144 -1.0666 -0.2175
 4795SOL    HW115826   5.263   1.916   1.469 -1.5958 -3.2252 -0.1097
 4795SOL    HW215827   5.177   1.895   1.346 -1.2657  0.1244 -0.9903
 4796SOL     OW15828   4.586   2.075   4.395  0.0289  0.0488  0.2987
 4796SOL    HW115829   4.611   1.984   4.414 -0.9998 -0.3427 -0.1136
 4796SOL    HW215830   4.548   2.071   4.307 -0.8226  0.7176  0.6213
 4797SOL     OW15831   5.636   5.122   3.854  0.1422 -1.0017  0.7329
 4797SOL    HW115832   5.730   5.135   3.842  0.1681 -0.6442  1.2574
 4797SOL    HW215833   5.615   5.047   3.799  0.8891 -1.5813  1.2133
 4798SOL     OW15834   1.050   6.790   1.643  0.3380 -0.5027 -0.0670
 4798SOL    HW115835   1.105   6.712   1.649 -2.4344 -2.5751  0.8153
 4798SOL    HW215836   1.026   6.809   1.734 -1.1358 -0.2962 -0.4805
 4799SOL     OW15837   1.592   2.364  10.399  0.4178  0.6486 -0.5582
 4799SOL    HW115838   1.553   2.278  10.391  0.4741  0.7340 -2.0322
 4799SOL    HW215839   1.523   2.425  10.374  0.5459  0.9938 -0.0862
 4800SOL     OW15840   4.447   0.289  10.261  0.5933  0.2424 -0.4030
 4800SOL    HW115841   4.402   0.244  10.333  2.2836 -0.4442  0.2719
 4800SOL    HW215842   4.451   0.224  10.191  1.7593 -0.1914  0.0513
 4801SOL     OW15843   4.843   2.024   8.585  0.1304 -0.2348 -0.1029
 4801SOL    HW115844   4.797   1.940   8.577  0.7628 -0.9553  2.6233
 4801SOL    HW215845   4.933   2.004   8.559  0.4284 -0.6053  1.1531
 4802SOL     OW15846   4.950   2.457   8.392 -0.0579  0.5865 -0.3690
 4802SOL    HW115847   5.013   2.401   8.347  0.1988  0.2404  0.3946
 4802SOL    HW215848   4.901   2.397   8.450  0.3837  1.1682  0.6416
 4803SOL     OW15849   7.726   3.611   0.718  0.8584  0.0115 -0.3098
 4803SOL    HW115850   7.662   3.655   0.662  0.1339 -0.9080 -0.2214
 4803SOL    HW215851   7.718   3.518   0.695  0.4901 -0.3963  1.3518
 4804SOL     OW15852   3.128   0.670   0.303 -0.1790  0.3503  0.1193
 4804SOL    HW115853   3.214   0.711   0.288  0.4039 -1.0830 -0.6259
 4804SOL    HW215854   3.106   0.694   0.393  1.3728  0.0986  0.5949
 4805SOL     OW15855   0.540   5.956   1.254  0.1928  0.0471 -0.0003
 4805SOL    HW115856   0.479   5.904   1.202  1.3287 -1.6289  0.2836
 4805SOL    HW215857   0.485   5.997   1.322 -0.6992 -1.0010 -0.0680
 4806SOL     OW15858   2.453   2.590   2.486 -0.5354 -0.3105 -0.4517
 4806SOL    HW115859   2.489   2.545   2.563  0.4606  2.1293  0.6078
 4806SOL    HW215860   2.359   2.575   2.491 -0.2660 -2.0815 -0.0598
 4807SOL     OW15861   4.071   7.666   5.683 -0.0341 -0.3254  0.3163
 4807SOL    HW115862   4.057   7.694   5.593  0.8865 -2.5652 -0.5974
 4807SOL    HW215863   4.163   7.685   5.701  0.4146 -1.9652 -0.0750
 4808SOL     OW15864   2.085   1.488   8.540 -0.4675 -0.4375  0.1848
 4808SOL    HW115865   2.162   1.469   8.487 -0.9647  0.6380 -0.9796
 4808SOL    HW215866   2.113   1.558   8.599 -0.3790 -0.4863  0.2012
 4809SOL     OW15867   3.062   0.801   2.506 -0.3814  0.4282  0.4515
 4809SOL    HW115868   3.109   0.809   2.589  1.4873 -1.3836 -0.3421
 4809SOL    HW215869   3.018   0.716   2.513 -0.9577  0.6809 -0.0729
 4810SOL     OW15870   7.620   1.825   3.995  0.0200  0.2317 -0.4600
 4810SOL    HW115871   7.533   1.785   3.989 -0.2672  0.9304 -1.1169
 4810SOL    HW215872   7.674   1.774   3.935  0.2031 -0.5177  0.3170
 4811SOL     OW15873   2.128   1.625   7.027  0.1221  0.1373  0.0165
 4811SOL    HW115874   2.097   1.553   7.083  0.1339 -0.2863 -0.5190
 4811SOL    HW215875   2.060   1.692   7.035 -0.6261 -0.5340 -0.6498
 4812SOL     OW15876   7.979   7.386  10.899 -0.1948  0.1090 -0.4273
 4812SOL    HW115877   7.983   7.480  10.882  1.2838 -0.0636 -1.2459
 4812SOL    HW215878   7.894   7.372  10.942  0.0911  1.9731  0.8425
 4813SOL     OW15879   3.354   5.047   9.767 -0.9161  0.0793  0.0927
 4813SOL    HW115880   3.269   5.078   9.798  0.1192  4.0313 -0.5013
 4813SOL    HW215881   3.407   5.040   9.846 -1.0407  0.2596  0.1935
 4814SOL     OW15882   3.629   2.506  11.777 -0.2179  0.0164 -0.1092
 4814SOL    HW115883   3.678   2.452  11.840  0.4998 -0.5256 -1.0978
 4814SOL    HW215884   3.576   2.443  11.728 -2.2518  0.6388  1.2068
 4815SOL     OW15885   6.495   2.924   0.531 -0.0196  0.8885  0.0468
 4815SOL    HW115886   6.506   2.861   0.602  0.5016 -0.9370 -1.5687
 4815SOL    HW215887   6.518   3.009   0.570 -1.3469  0.2436  2.4729
 4816SOL     OW15888   0.948   0.033   7.233  0.2124 -0.3277 -0.1603
 4816SOL    HW115889   0.892   0.002   7.162  0.8828 -1.4137 -0.2330
 4816SOL    HW215890   0.908  -0.003   7.313 -1.4009  2.1059  0.2283
 4817SOL     OW15891   3.494   2.654   8.993  0.2306 -0.1607 -0.2910
 4817SOL    HW115892   3.425   2.709   9.030 -0.1776 -0.1652 -1.0291
 4817SOL    HW215893   3.575   2.687   9.033 -0.2942 -0.8825  1.4360
 4818SOL     OW15894   4.049   2.445   8.476  0.7652  0.7887 -0.4594
 4818SOL    HW115895   3.970   2.459   8.528  0.7787  0.6715 -0.4095
 4818SOL    HW215896   4.046   2.516   8.411  0.0308  0.1365 -1.1719
 4819SOL     OW15897   2.906   6.152   5.263  0.2890  0.0329  0.4131
 4819SOL    HW115898   2.847   6.219   5.299  2.0349  1.1213  1.4131
 4819SOL    HW215899   2.903   6.166   5.169 -0.4135  0.6153  0.5085
 4820SOL     OW15900   0.692   2.777  12.447  0.0231 -0.0052 -0.4378
 4820SOL    HW115901   0.751   2.718  12.401 -2.9052 -1.0985 -3.1501
 4820SOL    HW215902   0.642   2.721  12.505 -0.0021  0.5031  0.0395
 4821SOL     OW15903   3.123   5.031   1.971 -0.5343 -0.5151  0.5022
 4821SOL    HW115904   3.174   5.007   1.894 -0.0140 -1.7803  1.2129
 4821SOL    HW215905   3.157   5.117   1.997  0.1691 -0.6611  0.0767
 4822SOL     OW15906   3.225   4.167   4.034 -0.4172 -0.0869  0.1865
 4822SOL    HW115907   3.159   4.179   3.965  1.1719  1.8152 -1.1265
 4822SOL    HW215908   3.228   4.252   4.079  1.4355  0.0628 -0.1310
 4823SOL     OW15909   6.767   3.733   6.293 -0.1517 -0.3330 -0.5117
 4823SOL    HW115910   6.718   3.787   6.231 -0.5328  0.8489  0.7628
 4823SOL    HW215911   6.721   3.649   6.295 -1.1282  0.1971 -0.5885
 4824SOL     OW15912   0.691   4.654   3.937  0.1031  0.4607  0.2937
 4824SOL    HW115913   0.658   4.579   3.987  1.5514  0.9816  2.1665
 4824SOL    HW215914   0.614   4.690   3.894 -0.8906 -1.1740  0.6016
 4825SOL     OW15915   4.441   4.811   4.591 -0.1226 -0.5852 -0.2210
 4825SOL    HW115916   4.442   4.732   4.644 -0.3403 -0.3307  0.1693
 4825SOL    HW215917   4.371   4.865   4.629  0.2978 -0.0310 -0.2117
 4826SOL     OW15918   5.382   0.168   9.590 -0.1699 -0.1368  0.1268
 4826SOL    HW115919   5.404   0.253   9.628  1.2210  1.3931 -3.5823
 4826SOL    HW215920   5.305   0.186   9.535  0.6181 -1.0289 -1.3285
 4827SOL     OW15921   4.990   6.579   2.610  0.1923  0.1294 -0.6110
 4827SOL    HW115922   5.018   6.583   2.701  2.1181 -0.7703 -1.1167
 4827SOL    HW215923   5.053   6.521   2.568 -0.7368  0.4124 -2.4961
 4828SOL     OW15924   7.639   3.981   4.969  0.4106 -0.3964  0.1687
 4828SOL    HW115925   7.703   4.042   4.933  0.5031 -0.2331  0.6037
 4828SOL    HW215926   7.556   4.029   4.965  0.3098 -0.6244 -0.4360
 4829SOL     OW15927   3.820   1.796  12.293  0.0656  0.1827  0.9272
 4829SOL    HW115928   3.743   1.849  12.274 -0.6833 -1.0425  0.4196
 4829SOL    HW215929   3.798   1.752  12.376 -0.2081 -0.9001  0.2997
 4830SOL     OW15930   2.864   6.773  10.262  0.4313  0.0291  0.0837
 4830SOL    HW115931   2.790   6.823  10.228 -0.9643 -2.6204 -1.0648
 4830SOL    HW215932   2.857   6.782  10.357 -0.8807  0.5177 -0.0334
 4831SOL     OW15933   2.651   3.286   5.875  0.0977 -0.1747 -0.1593
 4831SOL    HW115934   2.594   3.218   5.839 -0.1685 -0.3435  0.5701
 4831SOL    HW215935   2.606   3.368   5.853  0.1715 -0.2511 -0.6112
 4832SOL     OW15936   4.757   0.820   4.868  0.0128  0.3032 -0.3420
 4832SOL    HW115937   4.673   0.866   4.875  0.6277  1.3622  0.2505
 4832SOL    HW215938   4.808   0.852   4.942  0.3997 -1.5133  0.2248
 4833SOL     OW15939   3.679   3.198   9.170  0.2768  0.4702  0.3278
 4833SOL    HW115940   3.722   3.279   9.195 -1.0161  0.5303  2.6090
 4833SOL    HW215941   3.750   3.135   9.158  1.2071  1.5825 -0.0785
 4834SOL     OW15942   0.659   5.567   5.078  0.1592 -0.1490 -0.1048
 4834SOL    HW115943   0.640   5.481   5.041  2.5011 -0.4424 -0.7941
 4834SOL    HW215944   0.648   5.555   5.173  0.1808 -1.1245 -0.2112
 4835SOL     OW15945   0.425   7.787   2.967  0.0094 -0.2895 -0.1075
 4835SOL    HW115946   0.415   7.812   3.059 -2.2919 -0.6738 -0.1961
 4835SOL    HW215947   0.464   7.699   2.970 -0.5144 -0.5059  0.5180
 4836SOL     OW15948   3.386   2.093   8.918 -0.5560  0.0052  0.1175
 4836SOL    HW115949   3.414   2.075   8.828 -2.1265  0.3473 -0.4610
 4836SOL    HW215950   3.446   2.041   8.972 -0.7802 -1.7297 -1.2043
 4837SOL     OW15951   0.847   1.202   9.760 -0.0332  0.5830 -0.6632
 4837SOL    HW115952   0.822   1.143   9.689 -0.7023 -0.5885  0.4984
 4837SOL    HW215953   0.775   1.266   9.765 -0.5585 -0.0206 -0.3202
 4838SOL     OW15954   4.198   4.057   5.290 -0.2310 -0.1398  0.2829
 4838SOL    HW115955   4.199   3.967   5.258  0.8296 -0.3791  0.9294
 4838SOL    HW215956   4.263   4.102   5.237 -1.4539  0.5095 -0.7074
 4839SOL     OW15957   4.666   1.525  10.218  0.3978  0.5892 -0.6559
 4839SOL    HW115958   4.715   1.512  10.299  0.7966  1.1089 -0.8105
 4839SOL    HW215959   4.596   1.460  10.222  1.2226 -0.3151 -0.5414
 4840SOL     OW15960   7.082   1.006   9.242 -0.3678 -0.2768 -0.0842
 4840SOL    HW115961   7.135   0.950   9.299  1.2958  1.8117  0.5492
 4840SOL    HW215962   7.049   1.074   9.299  0.7565  1.4818 -1.4229
 4841SOL     OW15963   6.852   5.654   1.429 -0.2191 -0.0142 -0.6862
 4841SOL    HW115964   6.773   5.696   1.465  0.3375  1.0913 -0.7041
 4841SOL    HW215965   6.824   5.565   1.409 -0.9967 -0.1733  0.9352
 4842SOL     OW15966   2.729   0.523   0.930 -0.4141 -0.2848  0.4697
 4842SOL    HW115967   2.700   0.457   0.993  1.0425 -0.5667  0.8727
 4842SOL    HW215968   2.735   0.604   0.982 -0.8304 -0.1383  0.2961
 4843SOL     OW15969   7.271   3.601   6.437 -0.2810  0.5749 -0.4781
 4843SOL    HW115970   7.323   3.653   6.376 -0.5974  1.4977  0.0329
 4843SOL    HW215971   7.181   3.631   6.424 -0.3071  1.0632  0.7075
 4844SOL     OW15972   0.211   5.284   6.537 -0.1899 -0.5440 -0.6741
 4844SOL    HW115973   0.129   5.242   6.563 -0.4654  1.2117  1.6824
 4844SOL    HW215974   0.198   5.377   6.558  1.4514  0.2558 -2.8273
 4845SOL     OW15975   1.264   5.093   0.045 -0.3642 -0.1044  0.0268
 4845SOL    HW115976   1.207   5.169   0.028  0.5273  0.2301 -1.6393
 4845SOL    HW215977   1.247   5.033  -0.027 -0.5075 -1.1968  0.9324
 4846SOL     OW15978   1.785   7.839   7.610 -0.1973 -0.5804 -0.6126
 4846SOL    HW115979   1.772   7.764   7.553  0.7160 -0.3251 -1.1658
 4846SOL    HW215980   1.812   7.910   7.552 -0.7863  0.1128 -0.0674
 4847SOL     OW15981   1.524   3.324   5.875 -0.5623  0.6586 -0.4819
 4847SOL    HW115982   1.541   3.398   5.817 -0.2049 -2.0436 -4.1585
 4847SOL    HW215983   1.608   3.277   5.879 -1.3293 -0.7248 -0.1197
 4848SOL     OW15984   1.848   2.479   7.741 -0.4832 -0.3605 -1.1090
 4848SOL    HW115985   1.765   2.527   7.744 -0.9158 -1.1185 -0.1759
 4848SOL    HW215986   1.881   2.483   7.831 -1.0760 -2.6650 -0.7023
 4849SOL     OW15987   6.219   7.162   6.331 -0.3935 -0.3345  0.0797
 4849SOL    HW115988   6.287   7.222   6.298 -0.6300 -0.0350  0.1370
 4849SOL    HW215989   6.163   7.145   6.255 -0.1919 -0.6707  0.0044
 4850SOL     OW15990   5.903   5.178   5.666 -0.4262  0.5178 -0.0104
 4850SOL    HW115991   5.814   5.144   5.657 -0.4675  0.1997  1.3873
 4850SOL    HW215992   5.953   5.105   5.703  0.5221  0.5632 -1.1449
 4851SOL     OW15993   3.708   3.187   8.853  0.3550 -0.4446  0.3695
 4851SOL    HW115994   3.768   3.259   8.874 -1.8787  1.7319 -0.2188
 4851SOL    HW215995   3.712   3.179   8.757 -0.9082  0.3506  0.2308
 4852SOL     OW15996   5.269   2.589   0.199  0.1740  0.1127 -0.5664
 4852SOL    HW115997   5.228   2.571   0.284  0.3448  1.0188 -0.2823
 4852SOL    HW215998   5.360   2.561   0.210  0.6378  1.7969  0.1280
 4853SOL     OW15999   6.741   1.110   9.372  0.0792 -0.1651 -0.1132
 4853SOL    HW116000   6.659   1.157   9.383  0.1297  0.2458 -1.3132
 4853SOL    HW216001   6.781   1.150   9.295  2.0024  0.4954  1.1384
 4854SOL     OW16002   5.464   7.027   5.537  0.2670 -0.2620 -0.5647
 4854SOL    HW116003   5.416   7.007   5.617 -1.0014  1.0081 -0.9796
 4854SOL    HW216004   5.527   7.094   5.563  2.3977 -2.3931  0.1315
 4855SOL     OW16005   7.461   5.708   2.981  0.1328 -0.1541 -0.3874
 4855SOL    HW116006   7.445   5.798   2.952  0.1398  0.0083  0.0966
 4855SOL    HW216007   7.378   5.682   3.020  0.1516 -0.3356 -0.4711
 4856SOL     OW16008   6.921   1.533   4.131  0.2381  0.5250  0.0337
 4856SOL    HW116009   7.016   1.529   4.124  0.1363 -0.9018 -1.0750
 4856SOL    HW216010   6.902   1.515   4.223  1.0603  1.7544  0.4608
 4857SOL     OW16011   2.710   2.070   8.508  0.1609 -0.0082 -0.2006
 4857SOL    HW116012   2.683   1.991   8.556  0.9130  0.3623  0.8692
 4857SOL    HW216013   2.638   2.132   8.520 -0.4682 -0.5375 -1.1087
 4858SOL     OW16014   0.206   2.106   6.952  0.4324  0.4765 -0.5388
 4858SOL    HW116015   0.218   2.131   7.043  1.2349 -0.1444 -0.4641
 4858SOL    HW216016   0.198   2.011   6.953  1.5050  0.3661 -1.2174
 4859SOL     OW16017   5.571   2.371  10.934 -0.2893 -0.4105  0.2466
 4859SOL    HW116018   5.605   2.342  10.850  1.2130 -0.8460  0.9744
 4859SOL    HW216019   5.557   2.290  10.984 -0.1276 -0.1047  0.7954
 4860SOL     OW16020   5.881   0.239   7.198  0.3754 -0.4724 -0.0793
 4860SOL    HW116021   5.804   0.258   7.252  1.8921 -0.5002  2.2486
 4860SOL    HW216022   5.848   0.181   7.130 -1.5716 -0.9040  1.1327
 4861SOL     OW16023   2.394   3.062  11.544 -0.7478 -0.1508 -0.1444
 4861SOL    HW116024   2.421   2.970  11.545 -1.7173 -0.5031  2.6318
 4861SOL    HW216025   2.390   3.085  11.452 -0.9456 -3.0594 -0.9577
 4862SOL     OW16026   3.865   1.097   8.057  0.5982  0.5718  0.3530
 4862SOL    HW116027   3.844   1.187   8.034  1.0528  0.5605 -0.1147
 4862SOL    HW216028   3.855   1.093   8.153  0.7452  1.1548  0.3914
 4863SOL     OW16029   2.359   1.328   5.859  0.0495  0.6809 -0.1415
 4863SOL    HW116030   2.368   1.245   5.812  0.2017 -0.1032  1.2265
 4863SOL    HW216031   2.357   1.394   5.790 -0.7949 -0.5066 -1.3036
 4864SOL     OW16032   4.555   7.795   6.460  0.6760  0.2808 -0.0413
 4864SOL    HW116033   4.644   7.798   6.495  0.6907 -2.8978  0.4987
 4864SOL    HW216034   4.556   7.722   6.398 -1.7717 -0.4580  0.6950
 4865SOL     OW16035   0.758   6.323   6.093 -0.1207  0.3275 -0.1269
 4865SOL    HW116036   0.815   6.356   6.024 -1.3221  1.5259 -0.5775
 4865SOL    HW216037   0.792   6.363   6.173 -0.4391  1.2000 -0.4214
 4866SOL     OW16038   5.232   2.010   7.361  0.1226 -0.2913  0.0607
 4866SOL    HW116039   5.246   2.105   7.361 -0.4775 -0.1679 -1.3166
 4866SOL    HW216040   5.137   2.000   7.353  0.0394 -1.0410  1.5965
 4867SOL     OW16041   3.647   2.602   1.195  0.3570  0.3730  0.2614
 4867SOL    HW116042   3.604   2.673   1.148 -0.2152  0.1927  0.5052
 4867SOL    HW216043   3.716   2.572   1.136 -0.6954 -0.2119 -0.7032
 4868SOL     OW16044   4.090   7.014   4.110  0.3346 -0.4434 -0.4026
 4868SOL    HW116045   4.081   6.919   4.119  1.8198 -0.6711 -1.0827
 4868SOL    HW216046   4.081   7.048   4.199  1.4438 -1.3768  0.0794
 4869SOL     OW16047   6.959   1.926   4.676  0.3203  0.1578 -0.0916
 4869SOL    HW116048   6.889   1.989   4.694  0.3133 -0.1522  1.0058
 4869SOL    HW216049   7.036   1.963   4.718  0.6463  0.1200 -0.6484
 4870SOL     OW16050   4.297   2.163   6.721 -0.0668 -0.3479  0.1151
 4870SOL    HW116051   4.289   2.224   6.648 -1.2133  0.7786  1.1289
 4870SOL    HW216052   4.354   2.093   6.688  1.8082  1.5371 -0.9119
 4871SOL     OW16053   5.093   1.172   8.552  0.1179  0.4307 -0.3369
 4871SOL    HW116054   5.156   1.148   8.620 -0.1309  1.3763  0.2315
 4871SOL    HW216055   5.008   1.154   8.590  0.0090 -0.3933 -0.9345
 4872SOL     OW16056   6.577   5.328   0.861 -0.2519 -0.2630  0.0525
 4872SOL    HW116057   6.649   5.275   0.827 -0.0294 -0.8124  1.3553
 4872SOL    HW216058   6.501   5.270   0.859 -0.4517  0.0039 -0.3705
 4873SOL     OW16059   0.376   0.776   5.133  0.2087  0.6507 -0.0553
 4873SOL    HW116060   0.303   0.815   5.181  0.1826  0.8905 -0.2875
 4873SOL    HW216061   0.448   0.776   5.197  0.3970  1.6870 -0.2445
 4874SOL     OW16062   4.967   2.064   1.836  0.2989 -0.3163 -0.1313
 4874SOL    HW116063   5.029   2.001   1.873  0.0112 -0.5938 -0.1218
 4874SOL    HW216064   4.995   2.148   1.871  0.1763 -0.5443  0.5268
 4875SOL     OW16065   2.710   5.422  10.304 -0.7808  0.2901  0.1873
 4875SOL    HW116066   2.665   5.489  10.253 -0.4964  0.0356 -0.4008
 4875SOL    HW216067   2.757   5.369  10.240 -0.3101  0.0434  0.7213
 4876SOL     OW16068   1.164   3.446  11.225  0.2654 -0.2489  0.0366
 4876SOL    HW116069   1.249   3.405  11.245 -0.0232 -0.6627  0.4339
 4876SOL    HW216070   1.182   3.502  11.150  1.3148  1.0620  1.2161
 4877SOL     OW16071   0.007   6.697  10.820 -0.4635  0.1927  0.4554
 4877SOL    HW116072   0.027   6.680  10.912 -0.4395 -1.3599  0.1882
 4877SOL    HW216073   0.091   6.720  10.780  0.1260 -2.1494  0.2159
 4878SOL     OW16074   7.467   3.158  12.036  0.6345 -0.0819 -0.2256
 4878SOL    HW116075   7.530   3.102  12.083  0.4226 -1.2937 -1.3498
 4878SOL    HW216076   7.388   3.154  12.089  0.6181 -0.8732 -0.2939
 4879SOL     OW16077   3.969   2.192   3.378  0.4035  0.3553  0.3128
 4879SOL    HW116078   4.020   2.259   3.423  0.3335  2.4221 -2.4353
 4879SOL    HW216079   4.016   2.177   3.296 -0.2643 -2.1201  0.3189
 4880SOL     OW16080   1.788   5.637  10.299 -0.2633  0.3119 -0.6246
 4880SOL    HW116081   1.839   5.588  10.234 -0.8560 -0.5437 -0.4626
 4880SOL    HW216082   1.854   5.679  10.354  0.2789 -0.6590 -0.5045
 4881SOL     OW16083   2.598   4.899   4.324  0.1724 -0.2432 -0.0268
 4881SOL    HW116084   2.691   4.918   4.311  0.2747 -0.4992  0.2970
 4881SOL    HW216085   2.586   4.811   4.288 -0.6189  0.9192 -2.8958
 4882SOL     OW16086   6.357   2.401   0.442  0.3239  0.2827 -0.0301
 4882SOL    HW116087   6.301   2.474   0.468  0.1806  0.1726 -0.0264
 4882SOL    HW216088   6.318   2.324   0.485 -0.1315  0.0425 -0.8501
 4883SOL     OW16089   0.230   3.691   3.826  0.1010  0.0293 -0.4027
 4883SOL    HW116090   0.166   3.714   3.760  0.6403  1.6312 -0.4170
 4883SOL    HW216091   0.178   3.670   3.904 -0.5360 -1.9538 -1.3018
 4884SOL     OW16092   0.256   1.478   0.354  0.0118 -0.3614 -0.1114
 4884SOL    HW116093   0.233   1.492   0.446  1.0091  1.7251 -0.1266
 4884SOL    HW216094   0.252   1.383   0.343 -5.9243 -0.5748  0.4912
 4885SOL     OW16095   1.106   6.313   2.254 -0.7590  0.7698 -0.4917
 4885SOL    HW116096   1.174   6.285   2.315 -1.6206  1.2679  0.7359
 4885SOL    HW216097   1.025   6.307   2.305 -1.4979  1.2386 -1.5863
 4886SOL     OW16098   5.688   1.977   4.924  0.2517  0.6051  0.0172
 4886SOL    HW116099   5.674   1.968   5.018 -3.0001  0.7667 -0.3231
 4886SOL    HW216100   5.689   2.071   4.908 -1.1862  0.6016 -0.2622
 4887SOL     OW16101   3.278   7.650   1.833 -0.7150 -0.0134  0.2085
 4887SOL    HW116102   3.250   7.635   1.743  0.8141 -0.2833 -0.2655
 4887SOL    HW216103   3.202   7.630   1.886 -1.3853 -0.7289 -0.9795
 4888SOL     OW16104   5.242   4.312   5.997 -0.0576 -0.1084  0.0359
 4888SOL    HW116105   5.325   4.269   5.978  0.2436  0.4289  0.1200
 4888SOL    HW216106   5.200   4.254   6.061  1.0492  0.5118  1.3805
 4889SOL     OW16107   6.861   5.651   2.144  0.4498  0.0242 -0.4459
 4889SOL    HW116108   6.926   5.674   2.078  3.2037  2.6064  2.7886
 4889SOL    HW216109   6.908   5.595   2.206 -1.3275 -0.4370  0.5645
 4890SOL     OW16110   6.548   6.895   5.464 -0.6014  0.6284 -0.2231
 4890SOL    HW116111   6.507   6.981   5.458 -0.2737  0.8854  0.9332
 4890SOL    HW216112   6.564   6.882   5.558  0.2824 -0.2532 -0.4699
 4891SOL     OW16113   1.631   2.033   6.662  0.0741  0.1756 -0.0209
 4891SOL    HW116114   1.568   2.094   6.623  0.4259  0.8863  0.5268
 4891SOL    HW216115   1.684   2.086   6.721 -1.0473 -1.0293  2.1807
 4892SOL     OW16116   2.358   2.552   6.498 -0.1793 -0.4891  0.3817
 4892SOL    HW116117   2.318   2.522   6.579  1.6576 -0.2075  1.4409
 4892SOL    HW216118   2.328   2.642   6.488 -1.4963 -0.9501 -0.0059
 4893SOL     OW16119   0.246   7.420   8.458 -0.4435  0.1582 -0.1894
 4893SOL    HW116120   0.308   7.425   8.532 -1.3310 -0.6535  0.6371
 4893SOL    HW216121   0.289   7.363   8.395  1.5793  3.0098 -1.6108
 4894SOL     OW16122   0.706   3.386  11.916  0.3577  0.2220 -0.6591
 4894SOL    HW116123   0.638   3.321  11.898  0.4331  0.0058 -0.1719
 4894SOL    HW216124   0.756   3.349  11.989 -0.3753  1.3932  0.4877
 4895SOL     OW16125   7.187   6.774   7.670 -0.1373 -0.3913  0.5054
 4895SOL    HW116126   7.264   6.722   7.695 -0.7853 -0.1315  3.4561
 4895SOL    HW216127   7.114   6.728   7.710 -0.7833  2.4725  2.9887
 4896SOL     OW16128   5.271   5.184   7.688 -0.5213 -0.1612  0.0373
 4896SOL    HW116129   5.236   5.121   7.625 -1.9030 -0.2412  0.8219
 4896SOL    HW216130   5.274   5.136   7.771 -0.4429  0.4415  0.3949
 4897SOL     OW16131   1.864   0.848   2.193  0.2832 -0.2754 -0.4533
 4897SOL    HW116132   1.837   0.836   2.284 -1.1988  0.0693 -0.8154
 4897SOL    HW216133   1.937   0.909   2.197 -1.3494  1.7391  0.3656
 4898SOL     OW16134   4.547   2.502   5.231 -0.5205  0.5459  0.3203
 4898SOL    HW116135   4.563   2.595   5.214  0.6412  0.4161  0.6331
 4898SOL    HW216136   4.469   2.501   5.286 -0.3799  1.3550  0.5509
 4899SOL     OW16137   4.556   3.515  12.302  0.1893  0.3064 -0.2467
 4899SOL    HW116138   4.512   3.562  12.373  0.6600 -0.4274  0.5422
 4899SOL    HW216139   4.594   3.583  12.247  0.2742  0.8629  0.5008
 4900SOL     OW16140   6.145   7.176   2.879  0.6969  0.2604 -0.1527
 4900SOL    HW116141   6.141   7.142   2.969  1.2875 -0.5922 -0.4388
 4900SOL    HW216142   6.100   7.109   2.826  0.8513  0.4860 -0.5692
 4901SOL     OW16143   3.553   5.718  10.952 -0.1032 -0.0955 -0.4501
 4901SOL    HW116144   3.584   5.780  10.886  0.9709  0.1082  0.2353
 4901SOL    HW216145   3.598   5.742  11.032 -0.8582 -0.7900  0.2061
 4902SOL     OW16146   7.437   5.487   7.079  0.4620  0.1667 -0.0781
 4902SOL    HW116147   7.438   5.556   7.013 -1.6991  1.2280  0.8829
 4902SOL    HW216148   7.465   5.529   7.160 -2.7318  0.6103  0.9692
 4903SOL     OW16149   4.228   1.316   8.841  0.3873 -0.3616  0.3175
 4903SOL    HW116150   4.154   1.349   8.790 -0.3036 -1.3687  0.6325
 4903SOL    HW216151   4.237   1.379   8.912  1.6564  1.3084 -1.2375
 4904SOL     OW16152   3.669   4.265   6.549 -0.1234 -0.1402  0.0539
 4904SOL    HW116153   3.730   4.303   6.613 -2.3236  1.4742  1.3299
 4904SOL    HW216154   3.674   4.324   6.474 -0.7141  0.5093  0.5104
 4905SOL     OW16155   3.629   1.721   4.592  0.0763  0.2622  0.0613
 4905SOL    HW116156   3.567   1.712   4.665  1.4278 -0.2644  1.2010
 4905SOL    HW216157   3.677   1.638   4.591  0.4840  0.4952 -1.0611
 4906SOL     OW16158   1.424   0.292   0.986  0.2891  0.2878  0.2621
 4906SOL    HW116159   1.441   0.368   1.042  0.2407  0.0099  0.6648
 4906SOL    HW216160   1.449   0.217   1.041 -1.8207 -0.1243  0.7471
 4907SOL     OW16161   1.981   6.500   6.513 -0.0253 -0.0660  0.1187
 4907SOL    HW116162   1.966   6.507   6.607  1.6748 -1.4516  0.5352
 4907SOL    HW216163   1.983   6.406   6.495  1.6959  0.1180 -0.9080
 4908SOL     OW16164   6.470   4.725   0.216  0.1865 -0.0935 -0.0444
 4908SOL    HW116165   6.463   4.630   0.227 -0.5045 -0.0591 -0.1534
 4908SOL    HW216166   6.412   4.745   0.143 -0.3362  0.5197  0.5264
 4909SOL     OW16167   0.176   3.883   9.826  0.2239  0.3044 -0.7081
 4909SOL    HW116168   0.223   3.937   9.763  1.2700 -1.3345 -1.4171
 4909SOL    HW216169   0.096   3.857   9.781 -0.6604  1.8117 -0.0841
 4910SOL     OW16170   1.821   7.272  11.663 -0.3799 -0.3990  0.3876
 4910SOL    HW116171   1.729   7.269  11.636  0.4281  0.3458 -2.9008
 4910SOL    HW216172   1.856   7.187  11.636  0.8259  0.9576 -2.9434
 4911SOL     OW16173   5.183   1.886   9.356 -0.4882  0.1685  0.4264
 4911SOL    HW116174   5.222   1.972   9.339 -2.4756  1.1587  0.5680
 4911SOL    HW216175   5.199   1.870   9.449  0.6488 -0.0496  0.2085
 4912SOL     OW16176   2.462   1.882   2.091  0.3350 -0.0079  0.1163
 4912SOL    HW116177   2.557   1.897   2.092  0.3126  0.1265  0.1527
 4912SOL    HW216178   2.443   1.848   2.178  0.0320  1.8729  0.8227
 4913SOL     OW16179   2.695   5.710   1.267  0.6497  0.6041 -0.0334
 4913SOL    HW116180   2.692   5.627   1.220 -1.6113  0.3775  0.4299
 4913SOL    HW216181   2.767   5.699   1.330 -0.8612 -1.8316  1.4127
 4914SOL     OW16182   7.343   2.641   4.386 -0.1100 -0.3798 -0.0876
 4914SOL    HW116183   7.319   2.652   4.294 -1.1928 -3.0465 -0.2093
 4914SOL    HW216184   7.267   2.598   4.426  1.9307 -3.2841  1.0060
 4915SOL     OW16185   2.079   6.578   5.337 -0.3548 -0.3141 -0.1193
 4915SOL    HW116186   2.069   6.541   5.249  0.2343  0.3438 -0.4820
 4915SOL    HW216187   2.170   6.608   5.339 -0.3524 -0.3752  0.7372
 4916SOL     OW16188   2.833   1.617   0.199  0.6242 -0.3341 -0.2823
 4916SOL    HW116189   2.849   1.653   0.111 -2.0833 -1.4215 -1.3101
 4916SOL    HW216190   2.827   1.694   0.255  0.4262  0.4996 -1.3990
 4917SOL     OW16191   7.185   2.594  10.746  0.3620  0.4100  0.0975
 4917SOL    HW116192   7.143   2.644  10.676 -0.4606  1.6385  1.4235
 4917SOL    HW216193   7.193   2.656  10.818 -1.1823 -1.4875  1.9986
 4918SOL     OW16194   3.511   6.697  12.420  0.6642 -0.2110  0.1477
 4918SOL    HW116195   3.525   6.769  12.359  0.0404 -1.7803 -1.9767
 4918SOL    HW216196   3.434   6.651  12.385  0.1164 -1.0484  2.2968
 4919SOL     OW16197   0.509   7.351   0.189 -0.0535 -0.1559 -0.1671
 4919SOL    HW116198   0.590   7.306   0.163 -0.1002  0.2340 -1.0442
 4919SOL    HW216199   0.539   7.430   0.233  0.0636  0.2089 -0.8800
 4920SOL     OW16200   6.274   6.774   4.171 -0.2752  0.4290 -0.3996
 4920SOL    HW116201   6.200   6.833   4.185  0.0634  0.7587  0.0515
 4920SOL    HW216202   6.245   6.690   4.205 -0.9220  0.2165 -1.4408
 4921SOL     OW16203   1.138   0.510   1.184  0.0922  0.3470  0.5248
 4921SOL    HW116204   1.122   0.578   1.118 -0.9657  0.7050  1.1224
 4921SOL    HW216205   1.099   0.545   1.264  0.6606 -0.4263  1.1560
 4922SOL     OW16206   1.479   0.522   3.128 -0.1240 -0.0078  0.5400
 4922SOL    HW116207   1.538   0.564   3.191 -0.7095  0.4385  0.7930
 4922SOL    HW216208   1.453   0.592   3.068 -1.5052  0.1189  1.2645
 4923SOL     OW16209   3.679   1.007   1.998  0.1484  0.7700  0.6998
 4923SOL    HW116210   3.671   1.097   2.029 -0.5127  0.7703  0.5253
 4923SOL    HW216211   3.592   0.969   2.008  0.1440  0.4830 -0.2572
 4924SOL     OW16212   0.633   3.692   7.694 -0.1850  0.7845 -0.4459
 4924SOL    HW116213   0.623   3.764   7.756 -1.6419 -0.9558  1.4918
 4924SOL    HW216214   0.548   3.688   7.649 -0.7347 -0.6475  0.6260
 4925SOL     OW16215   0.808   2.130   1.678 -0.3150 -0.3523  0.4563
 4925SOL    HW116216   0.739   2.112   1.614 -0.1871 -0.4640  0.3508
 4925SOL    HW216217   0.818   2.048   1.726  1.1387 -0.9973 -0.8448
 4926SOL     OW16218   1.144   3.305   6.795  0.3642  0.5455 -0.0048
 4926SOL    HW116219   1.145   3.391   6.754  2.3675  0.4776 -0.1613
 4926SOL    HW216220   1.113   3.321   6.885  2.1005  1.6607  0.4267
 4927SOL     OW16221   5.987   0.232  11.502 -0.4325  0.0725  0.4609
 4927SOL    HW116222   6.045   0.229  11.578 -1.1423 -0.7522  0.9768
 4927SOL    HW216223   5.965   0.325  11.492  1.7466  0.5694 -0.3567
 4928SOL     OW16224   7.204   0.035   4.418 -1.1244  0.0265  0.9623
 4928SOL    HW116225   7.144  -0.015   4.364 -1.4844  2.0584 -0.6255
 4928SOL    HW216226   7.149   0.098   4.464 -0.5221 -0.0417  1.8155
 4929SOL     OW16227   1.974   2.493   8.780 -0.6377 -0.6772  0.0068
 4929SOL    HW116228   2.020   2.471   8.699 -1.2091 -0.2108 -0.4435
 4929SOL    HW216229   1.923   2.571   8.759 -1.3028 -0.9361  0.6329
 4930SOL     OW16230   6.000   7.496   8.165 -0.0395  0.4900  0.0539
 4930SOL    HW116231   5.987   7.435   8.238  1.2971 -0.4061 -0.4249
 4930SOL    HW216232   5.912   7.529   8.146 -0.8054 -1.2512  0.3651
 4931SOL     OW16233   6.769   2.684   6.767  0.6118 -0.1907 -0.5611
 4931SOL    HW116234   6.699   2.624   6.740  2.1646 -1.5690 -1.7461
 4931SOL    HW216235   6.756   2.762   6.713  0.2545 -0.6126 -1.0951
 4932SOL     OW16236   6.916   1.305   1.495 -0.1288  0.1820 -0.9449
 4932SOL    HW116237   6.987   1.242   1.484  0.4564  0.8194 -0.8943
 4932SOL    HW216238   6.838   1.260   1.462 -0.1860 -1.4201  1.2190
 4933SOL     OW16239   3.869   0.925   4.967 -0.6779 -0.3074  0.3134
 4933SOL    HW116240   3.774   0.934   4.960 -0.6967  0.4897  1.3105
 4933SOL    HW216241   3.904   0.997   4.915 -0.6398 -0.2778  0.3788
 4934SOL     OW16242   4.346   0.114  10.037  0.5297 -1.0321  0.3160
 4934SOL    HW116243   4.321   0.023  10.018  0.1775 -0.6594 -1.1652
 4934SOL    HW216244   4.386   0.145   9.956  1.8273 -0.2450  1.2305
 4935SOL     OW16245   0.087   7.658  10.813 -0.0533  0.4478  0.1712
 4935SOL    HW116246   0.162   7.605  10.785 -1.2587 -1.0633 -0.3200
 4935SOL    HW216247   0.065   7.710  10.735 -0.1956  0.0850 -0.0317
 4936SOL     OW16248   2.247   6.164   8.441 -0.2275 -0.2959  0.3702
 4936SOL    HW116249   2.331   6.197   8.473 -0.1507 -0.1483  0.0179
 4936SOL    HW216250   2.222   6.225   8.371 -1.7899  1.1108  2.0436
 4937SOL     OW16251   1.318   0.802   4.746 -0.0555 -0.0653 -0.2536
 4937SOL    HW116252   1.228   0.830   4.730 -0.0556  0.3575  0.4355
 4937SOL    HW216253   1.372   0.866   4.702 -0.0829  0.1511  0.0231
 4938SOL     OW16254   2.001   4.429   5.708 -0.0587  0.1177 -0.3979
 4938SOL    HW116255   1.947   4.355   5.679 -1.0979  0.1406  1.3203
 4938SOL    HW216256   1.967   4.504   5.660 -1.0977 -0.0034  0.1275
 4939SOL     OW16257   4.640   5.725   3.887 -0.0798 -0.2361 -0.2218
 4939SOL    HW116258   4.681   5.800   3.844  0.0890 -0.3683 -0.2933
 4939SOL    HW216259   4.685   5.649   3.849  0.2705 -0.3464  0.3995
 4940SOL     OW16260   2.930   2.345   7.438 -0.3227  0.1418 -0.6734
 4940SOL    HW116261   2.856   2.402   7.458 -0.0342 -0.1822  1.4964
 4940SOL    HW216262   3.004   2.384   7.484  0.0611 -1.4814  0.1588
 4941SOL     OW16263   3.953   5.685  12.444  0.0315 -0.6883  0.2803
 4941SOL    HW116264   4.017   5.755  12.430  1.3086 -2.0762 -1.2530
 4941SOL    HW216265   3.953   5.636  12.362 -3.2087 -0.6548  0.1370
 4942SOL     OW16266   5.737   0.658   5.312 -0.2347 -0.2162  0.2996
 4942SOL    HW116267   5.739   0.687   5.221  1.0049 -1.6001 -0.1364
 4942SOL    HW216268   5.667   0.592   5.315  0.5719 -1.0946  0.0463
 4943SOL     OW16269   5.913   1.649   7.957 -0.6554 -0.3730 -0.1316
 4943SOL    HW116270   5.849   1.598   7.906  1.5283 -1.7272 -1.7053
 4943SOL    HW216271   5.897   1.623   8.048 -1.3811 -1.8248 -0.6380
 4944SOL     OW16272   3.505   1.180   4.076  0.2986  0.5223 -0.0868
 4944SOL    HW116273   3.460   1.258   4.106 -0.9692  0.0429 -0.6496
 4944SOL    HW216274   3.439   1.132   4.025  1.1098 -0.7828  0.0285
 4945SOL     OW16275   4.506   0.040   2.935 -0.6291 -0.2375 -0.2441
 4945SOL    HW116276   4.558   0.106   2.981 -1.1449  0.1734 -0.2471
 4945SOL    HW216277   4.417   0.050   2.968 -1.2736  0.8538 -2.1246
 4946SOL     OW16278   3.032   3.492   2.191  0.2831 -0.4458  0.5947
 4946SOL    HW116279   3.056   3.417   2.136 -0.0096 -0.8074  0.9445
 4946SOL    HW216280   3.058   3.569   2.141 -0.9078 -0.7299 -0.4951
 4947SOL     OW16281   0.638   3.580  11.506  0.5761 -0.0641  0.1772
 4947SOL    HW116282   0.580   3.621  11.570  1.7229 -0.0734  1.2625
 4947SOL    HW216283   0.580   3.544  11.440 -0.6924 -0.8106  1.6603
 4948SOL     OW16284   4.805   3.518   8.156 -0.0464  0.2747  0.2241
 4948SOL    HW116285   4.817   3.437   8.107  0.7197  0.5730 -0.1031
 4948SOL    HW216286   4.726   3.504   8.207  0.0140 -0.6366  0.0857
 4949SOL     OW16287   6.716   3.404   6.555 -0.0597 -0.5033 -0.5218
 4949SOL    HW116288   6.791   3.464   6.559 -1.6814  1.7466 -1.1920
 4949SOL    HW216289   6.654   3.439   6.619 -1.0800 -1.4801 -0.9425
 4950SOL     OW16290   1.693   7.821  11.575 -0.1662 -0.3640 -0.5677
 4950SOL    HW116291   1.745   7.780  11.506 -1.0796 -0.0455 -1.4737
 4950SOL    HW216292   1.658   7.747  11.625  0.1789 -0.6163 -0.6952
 4951SOL     OW16293   0.716   4.480   2.914 -0.3715 -0.1499  0.3499
 4951SOL    HW116294   0.665   4.423   2.971  0.3927 -0.0244  1.1806
 4951SOL    HW216295   0.780   4.521   2.972  0.3751  0.0411 -0.5840
 4952SOL     OW16296   3.628   3.746   7.984  0.5118 -0.6529 -0.1274
 4952SOL    HW116297   3.638   3.801   8.062  1.4973 -0.4005 -0.4221
 4952SOL    HW216298   3.684   3.670   8.001  0.7311 -0.5973 -0.5842
 4953SOL     OW16299   6.105   6.641   3.837 -0.1034  0.1415  0.7004
 4953SOL    HW116300   6.031   6.691   3.802  0.1485  0.2639  0.3427
 4953SOL    HW216301   6.067   6.589   3.908 -1.2098 -2.1071 -1.3905
 4954SOL     OW16302   1.604   4.663   1.019  0.1860 -0.1481  0.1948
 4954SOL    HW116303   1.671   4.599   1.041  0.8765  0.4106 -0.2275
 4954SOL    HW216304   1.651   4.746   1.011 -0.6714  0.4042  0.6445
 4955SOL     OW16305   1.032   3.608   2.255  0.5618  0.2349  0.0349
 4955SOL    HW116306   1.058   3.680   2.197 -0.7093  0.7532  0.0893
 4955SOL    HW216307   1.053   3.638   2.343  2.8882 -0.7184 -0.1096
 4956SOL     OW16308   4.406   4.976  10.558  0.0780 -0.4297 -0.4617
 4956SOL    HW116309   4.315   4.946  10.559 -0.2756  0.5913  0.9727
 4956SOL    HW216310   4.451   4.918  10.620  0.2421 -0.4364 -0.5862
 4957SOL     OW16311   1.994   0.876  10.856  0.2256 -0.5113  0.7717
 4957SOL    HW116312   2.086   0.903  10.855 -0.1131  0.7124  0.5173
 4957SOL    HW216313   1.983   0.826  10.775  0.1022  1.4859 -0.5289
 4958SOL     OW16314   6.893   4.489   5.262 -0.1585 -0.2938  0.5107
 4958SOL    HW116315   6.972   4.437   5.277  1.5016  2.2040  1.0057
 4958SOL    HW216316   6.896   4.556   5.331 -2.3648  0.2865  0.0996
 4959SOL     OW16317   1.478   5.314   7.678  0.1120  0.4088  0.1454
 4959SOL    HW116318   1.425   5.326   7.599  0.7855 -0.4868 -0.4704
 4959SOL    HW216319   1.423   5.347   7.749 -0.6329  0.9462 -0.6611
 4960SOL     OW16320   7.656   3.903   0.283  0.0969  0.9555  0.3378
 4960SOL    HW116321   7.594   3.833   0.264 -1.2067  1.8278  1.2644
 4960SOL    HW216322   7.725   3.862   0.334  0.9978 -0.3016 -1.7507
 4961SOL     OW16323   7.783   3.746   5.088  0.7398 -0.2492 -0.0865
 4961SOL    HW116324   7.734   3.663   5.094  1.2336 -0.5410 -0.0714
 4961SOL    HW216325   7.718   3.809   5.056  0.2227 -0.5196  0.3977
 4962SOL     OW16326   1.366   0.970   9.142 -0.1575  0.7619 -0.5241
 4962SOL    HW116327   1.327   0.978   9.230 -3.1918  1.6089 -1.7980
 4962SOL    HW216328   1.460   0.971   9.157 -0.5615  1.5363  2.6793
 4963SOL     OW16329   0.996   4.482   3.890 -0.1606 -0.0097  0.2509
 4963SOL    HW116330   0.972   4.506   3.800  0.8146  1.9562  0.4670
 4963SOL    HW216331   0.913   4.486   3.938 -0.6819 -1.0111 -0.5114
 4964SOL     OW16332   4.152   1.716   0.364  0.6424 -0.3679 -0.4689
 4964SOL    HW116333   4.147   1.668   0.281 -1.7884 -0.3216 -0.4225
 4964SOL    HW216334   4.076   1.773   0.363  0.6264 -0.2695  1.7439
 4965SOL     OW16335   7.391   0.665  11.417 -0.3028 -0.1986  0.5433
 4965SOL    HW116336   7.485   0.653  11.404 -0.4996 -1.9623  0.3865
 4965SOL    HW216337   7.382   0.690  11.508  0.3194 -0.2148  0.6131
 4966SOL     OW16338   2.333   5.812  10.276  0.4487 -0.5518  0.3798
 4966SOL    HW116339   2.253   5.864  10.279  0.5084 -0.4840  2.6752
 4966SOL    HW216340   2.317   5.748  10.206 -0.4782  1.1323 -1.0351
 4967SOL     OW16341   3.958   0.060   3.432  0.1321 -0.4862 -0.1617
 4967SOL    HW116342   3.931   0.042   3.342  2.0973  0.7719 -1.0757
 4967SOL    HW216343   3.946  -0.024   3.478 -2.0781 -0.8128 -1.2419
 4968SOL     OW16344   3.644   4.117   1.328 -0.1406 -0.1216  0.0994
 4968SOL    HW116345   3.648   4.212   1.314  0.6323 -0.0260  0.9201
 4968SOL    HW216346   3.675   4.080   1.245  0.8924  0.3797  0.2382
 4969SOL     OW16347   2.882   2.680   7.249  0.2362  0.1337 -0.2652
 4969SOL    HW116348   2.968   2.641   7.262  0.3821 -0.0493 -1.6296
 4969SOL    HW216349   2.872   2.742   7.322  0.1076 -2.2107  1.8240
 4970SOL     OW16350   6.959   0.382   6.145 -0.7486  0.2128  0.1038
 4970SOL    HW116351   6.952   0.344   6.058 -1.8653  0.0766  0.2364
 4970SOL    HW216352   7.026   0.330   6.189 -0.9379 -0.4031 -0.3330
 4971SOL     OW16353   1.868   2.528   4.974  0.4128  0.1244 -0.0189
 4971SOL    HW116354   1.806   2.524   5.046  0.5700  1.0653  0.1935
 4971SOL    HW216355   1.830   2.473   4.906 -0.8129  0.9248 -0.0130
 4972SOL     OW16356   5.822   6.596   1.929 -0.0010 -0.1305  0.2666
 4972SOL    HW116357   5.800   6.613   2.021 -1.0843  0.3124 -0.0576
 4972SOL    HW216358   5.814   6.681   1.886 -0.2423 -0.4647 -0.3734
 4973SOL     OW16359   7.171   6.080   6.482  0.0363  0.3809  0.4424
 4973SOL    HW116360   7.127   6.163   6.461  0.8249  1.2250  1.8734
 4973SOL    HW216361   7.261   6.106   6.502  0.3529 -0.8672  0.7039
 4974SOL     OW16362   4.339   6.850   4.613  0.3504  0.1990  0.2737
 4974SOL    HW116363   4.354   6.836   4.707  0.4568 -1.1514  0.0832
 4974SOL    HW216364   4.249   6.881   4.608  1.0690  2.6490  0.9803
 4975SOL     OW16365   3.381   0.192   5.255 -0.0262  0.0787 -0.0416
 4975SOL    HW116366   3.461   0.172   5.206  0.1397  0.7503 -0.0479
 4975SOL    HW216367   3.334   0.108   5.259  1.1610 -0.5718  0.8699
 4976SOL     OW16368   5.808   4.241   3.412 -0.0962 -0.1065  0.0706
 4976SOL    HW116369   5.826   4.147   3.420 -0.4720 -0.1429  0.5526
 4976SOL    HW216370   5.805   4.273   3.502  2.2217  0.8199 -0.1117
 4977SOL     OW16371   4.646   6.817   0.699  0.0609  0.1396 -0.1157
 4977SOL    HW116372   4.563   6.822   0.745 -0.1312 -0.0146 -0.4443
 4977SOL    HW216373   4.625   6.776   0.615  0.6685 -0.9775  0.2665
 4978SOL     OW16374   1.500   2.083   0.475  0.2420 -0.4820  0.5722
 4978SOL    HW116375   1.535   2.002   0.511  0.2619 -0.7830 -0.1247
 4978SOL    HW216376   1.573   2.124   0.430 -0.1502 -0.8271 -0.3876
 4979SOL     OW16377   4.143   5.251   3.022  0.1544  0.3173  0.5339
 4979SOL    HW116378   4.069   5.239   2.962  0.0893  0.8373  0.5024
 4979SOL    HW216379   4.102   5.261   3.108  0.1436  1.1588  0.4429
 4980SOL     OW16380   6.841   5.399   3.640 -0.4793  0.3740  0.1452
 4980SOL    HW116381   6.806   5.317   3.605 -1.4557  0.7437  0.2396
 4980SOL    HW216382   6.790   5.415   3.719 -0.3343  1.1042  0.0989
 4981SOL     OW16383   5.456   5.280   8.595 -0.5955  0.4530  0.0184
 4981SOL    HW116384   5.363   5.263   8.589 -0.4127 -0.1384 -1.4541
 4981SOL    HW216385   5.491   5.257   8.509  0.7640  1.5663  0.2281
 4982SOL     OW16386   3.916   1.915  11.836 -0.1602 -0.4207 -0.0342
 4982SOL    HW116387   3.847   1.909  11.902 -1.4462  0.8986 -1.1960
 4982SOL    HW216388   3.963   1.996  11.858  2.1110 -2.0589  1.6694
 4983SOL     OW16389   2.438   3.080   5.216  0.6714  0.5022 -0.0041
 4983SOL    HW116390   2.482   3.163   5.194  3.8205 -0.7728  0.8729
 4983SOL    HW216391   2.440   3.076   5.311 -0.6006 -0.0284  0.0137
 4984SOL     OW16392   6.796   1.483   4.362 -0.7930 -0.8709  0.1910
 4984SOL    HW116393   6.782   1.573   4.391  0.4690 -0.6371  0.1516
 4984SOL    HW216394   6.741   1.430   4.420 -0.8728 -0.1428  0.7889
 4985SOL     OW16395   5.739   6.739   8.363 -0.3457  0.2527  0.2169
 4985SOL    HW116396   5.800   6.665   8.357 -0.0236  0.4663  0.7708
 4985SOL    HW216397   5.715   6.758   8.273 -1.3993 -1.3337  0.1078
 4986SOL     OW16398   5.318   3.716   3.703 -0.2083 -0.2676 -0.1839
 4986SOL    HW116399   5.391   3.736   3.643 -0.8122 -2.4328 -1.7616
 4986SOL    HW216400   5.334   3.772   3.779  1.7794  1.0553 -1.4661
 4987SOL     OW16401   3.796   1.288  10.101 -0.0407  0.2502 -0.0859
 4987SOL    HW116402   3.765   1.376  10.077  0.6770  0.2835 -0.9412
 4987SOL    HW216403   3.851   1.302  10.178  0.0688  0.5566 -0.2183
 4988SOL     OW16404   2.530   1.747   1.832 -0.7184 -0.4459 -0.4542
 4988SOL    HW116405   2.496   1.813   1.893 -1.2603 -1.3179  0.1936
 4988SOL    HW216406   2.460   1.736   1.768 -0.0471  0.6660 -1.4373
 4989SOL     OW16407   0.637   2.974   2.005  0.0739  0.5463  0.0298
 4989SOL    HW116408   0.682   2.900   2.045  0.1455  0.6927  0.2266
 4989SOL    HW216409   0.545   2.947   2.000  0.3941 -0.3471 -1.7595
 4990SOL     OW16410   5.799   3.275   8.627  0.3434 -0.4522  0.0232
 4990SOL    HW116411   5.825   3.287   8.719 -0.1142 -0.0556  0.1032
 4990SOL    HW216412   5.866   3.322   8.577 -1.2536  2.3725  0.3157
 4991SOL     OW16413   6.030   5.830   7.616 -0.0291  0.1172 -0.0998
 4991SOL    HW116414   5.992   5.786   7.692 -0.6193  1.2729  0.3086
 4991SOL    HW216415   5.960   5.830   7.551  0.8011 -1.7634 -1.0546
 4992SOL     OW16416   0.638   2.007   2.917 -0.4364  0.3365 -0.1419
 4992SOL    HW116417   0.547   2.016   2.946 -0.0743 -0.1455  1.2394
 4992SOL    HW216418   0.664   2.095   2.889 -0.7672  0.8883  1.2163
 4993SOL     OW16419   5.331   7.247  11.794  0.3691  0.2557  0.3880
 4993SOL    HW116420   5.327   7.152  11.805  1.4257 -0.2478 -2.6003
 4993SOL    HW216421   5.242   7.272  11.770  0.1164  0.0173  1.0605
 4994SOL     OW16422   3.933   1.623   3.175 -0.1249  0.2577  0.3838
 4994SOL    HW116423   3.921   1.717   3.175 -1.0574  0.1577  1.3896
 4994SOL    HW216424   3.981   1.604   3.256 -0.4590 -0.1869  0.4826
 4995SOL     OW16425   5.028   4.214  11.191  0.5470 -0.1558  0.1859
 4995SOL    HW116426   5.078   4.148  11.239  0.4541 -1.3661 -1.2787
 4995SOL    HW216427   4.941   4.213  11.232  0.6605 -0.6744  0.4223
 4996SOL     OW16428   7.587   5.699   5.056 -0.4396 -0.2222  0.7803
 4996SOL    HW116429   7.661   5.640   5.068 -1.5540 -1.5979  1.1693
 4996SOL    HW216430   7.554   5.715   5.144 -0.0786  1.1258  0.6969
 4997SOL     OW16431   0.213   6.504   3.825 -0.0261  0.2078  0.2748
 4997SOL    HW116432   0.128   6.545   3.842  0.4607  1.6248 -0.5712
 4997SOL    HW216433   0.263   6.519   3.905 -0.2658  0.1749  0.4318
 4998SOL     OW16434   0.743   5.301  11.749  0.1696 -0.6435 -0.2173
 4998SOL    HW116435   0.677   5.248  11.705  0.0445 -1.0074  0.3934
 4998SOL    HW216436   0.693   5.359  11.807  0.3840 -1.0238  0.3586
 4999SOL     OW16437   6.415   6.130   6.170  0.1234 -0.2506  0.4301
 4999SOL    HW116438   6.453   6.063   6.226  1.6570 -0.7836 -1.1591
 4999SOL    HW216439   6.321   6.120   6.181  0.3476 -1.6306  1.3762
 5000SOL     OW16440   6.152   6.771   6.505  0.7063  0.3784  0.1498
 5000SOL    HW116441   6.095   6.847   6.500  1.5770  1.0684  0.4695
 5000SOL    HW216442   6.105   6.710   6.563  0.3409  0.9721  0.4947
 5001SOL     OW16443   2.256   5.792   3.609  0.2733  0.3520  0.2222
 5001SOL    HW116444   2.184   5.753   3.560 -1.0020  2.4593  0.2879
 5001SOL    HW216445   2.319   5.818   3.542  0.0971  0.1871 -0.0087
 5002SOL     OW16446   1.240   4.252   6.740  0.5165 -0.0147 -0.5516
 5002SOL    HW116447   1.315   4.203   6.705  0.3283  0.0472 -1.0600
 5002SOL    HW216448   1.246   4.338   6.699  0.1124 -0.0419 -0.6785
 5003SOL     OW16449   0.599   4.216   5.533  0.0560 -0.0838 -0.2885
 5003SOL    HW116450   0.687   4.188   5.509 -0.2764 -0.7792 -0.7233
 5003SOL    HW216451   0.548   4.135   5.539 -0.4840  0.2865  0.2597
 5004SOL     OW16452   4.881   2.162   4.003  0.1689 -0.0376  0.3984
 5004SOL    HW116453   4.833   2.219   3.942 -0.4344 -1.1324 -0.1804
 5004SOL    HW216454   4.917   2.222   4.068  0.1093  1.0798 -0.5540
 5005SOL     OW16455   4.595   5.308   4.250  0.6842  0.4614 -0.4513
 5005SOL    HW116456   4.546   5.349   4.322  0.8156 -0.3186  0.0944
 5005SOL    HW216457   4.527   5.279   4.189  0.5787  1.2578 -0.7173
 5006SOL     OW16458   7.683   2.700   8.904 -0.4305  0.4321  0.3980
 5006SOL    HW116459   7.668   2.676   8.995 -0.2844 -0.6528  0.1413
 5006SOL    HW216460   7.704   2.618   8.860 -0.3287  0.9679 -0.5831
 5007SOL     OW16461   3.265   7.954   1.824  0.0043  0.2544  0.4775
 5007SOL    HW116462   3.272   7.872   1.872 -1.3864 -0.0088  0.2668
 5007SOL    HW216463   3.344   8.003   1.848  2.3526 -2.2303 -1.5395
 5008SOL     OW16464   3.906   7.098   7.765 -0.1129  0.4686 -0.0709
 5008SOL    HW116465   3.949   7.184   7.766 -0.0280  0.4226  0.2448
 5008SOL    HW216466   3.920   7.065   7.676  3.2550 -0.9458  0.8390
 5009SOL     OW16467   5.013   1.472   5.437 -0.1616 -0.7174 -0.2917
 5009SOL    HW116468   4.918   1.471   5.445 -0.0785 -1.5080  0.8723
 5009SOL    HW216469   5.029   1.487   5.344 -1.4302 -1.1396 -0.6009
 5010SOL     OW16470   2.809   5.219   9.176  0.2816  0.4779  0.3551
 5010SOL    HW116471   2.817   5.311   9.200 -0.0085  0.5977 -0.0164
 5010SOL    HW216472   2.822   5.172   9.259  0.1037  0.8619  0.6043
 5011SOL     OW16473   2.203   4.316   4.343  0.2418 -0.5569  0.0486
 5011SOL    HW116474   2.279   4.273   4.305 -0.4120 -0.1809 -1.7909
 5011SOL    HW216475   2.155   4.351   4.268 -0.6029  1.1379  1.3040
 5012SOL     OW16476   4.550   0.035  11.692  0.0174  0.1480 -0.3499
 5012SOL    HW116477   4.552   0.074  11.779  1.6031 -0.6404  0.0068
 5012SOL    HW216478   4.532   0.109  11.634 -2.2800  0.4798  0.6987
 5013SOL     OW16479   3.157   6.335   6.076 -0.0560  0.0592 -0.0627
 5013SOL    HW116480   3.118   6.381   6.149  0.8123 -0.1152  0.5216
 5013SOL    HW216481   3.185   6.251   6.112  0.8867  0.1929 -0.4469
 5014SOL     OW16482   0.302   7.104   1.455 -0.0760 -0.6288  0.0482
 5014SOL    HW116483   0.341   7.187   1.484 -0.6006 -0.6145  0.7401
 5014SOL    HW216484   0.374   7.041   1.463  0.8183  0.0329 -2.0713
 5015SOL     OW16485   6.917   4.745   2.351  0.7416 -0.0641  0.0416
 5015SOL    HW116486   6.907   4.738   2.256 -2.7708  0.0705  0.2598
 5015SOL    HW216487   6.960   4.829   2.364 -1.3024  1.3043 -1.4441
 5016SOL     OW16488   5.708   2.082   6.727 -0.3136  0.3091 -0.2960
 5016SOL    HW116489   5.658   2.162   6.711 -0.9078 -0.1077 -0.5626
 5016SOL    HW216490   5.798   2.105   6.703 -0.4510  0.9280 -0.2542
 5017SOL     OW16491   2.685   7.895   7.453 -0.3554 -0.2100  0.0223
 5017SOL    HW116492   2.597   7.912   7.419  0.3199 -1.3910 -2.5672
 5017SOL    HW216493   2.689   7.800   7.462  0.6388 -0.1670  0.1487
 5018SOL     OW16494   2.916   1.331   6.450  0.4538 -1.1003 -0.4375
 5018SOL    HW116495   2.830   1.347   6.411  0.4719 -0.0425 -0.0625
 5018SOL    HW216496   2.977   1.371   6.388  0.5440 -0.2328  0.1947
 5019SOL     OW16497   6.528   2.540   4.178 -0.4106  0.1298  0.6634
 5019SOL    HW116498   6.514   2.553   4.272  0.3337  0.9950  0.6620
 5019SOL    HW216499   6.472   2.605   4.136  0.2478  0.6404  0.5537
 5020SOL     OW16500   5.841   2.665   0.999  0.2375  0.5850 -0.1167
 5020SOL    HW116501   5.836   2.609   1.077  2.2053  1.0977  0.4199
 5020SOL    HW216502   5.929   2.702   1.001  0.1329  1.0645 -2.3057
 5021SOL     OW16503   0.723   7.266   3.261  0.3763  0.3796  0.0852
 5021SOL    HW116504   0.770   7.217   3.329  0.7944  1.9113  0.9448
 5021SOL    HW216505   0.750   7.357   3.274 -1.1660  0.9957 -0.8004
 5022SOL     OW16506   1.197   3.334   5.547 -0.0559 -0.0990  0.3583
 5022SOL    HW116507   1.232   3.244   5.549  0.3583  0.0675  1.7770
 5022SOL    HW216508   1.165   3.349   5.636 -2.3089  0.3471 -0.4722
 5023SOL     OW16509   0.555   2.971  11.091  0.3641 -0.4025  0.0001
 5023SOL    HW116510   0.612   2.938  11.160  3.0000  0.7287 -1.4856
 5023SOL    HW216511   0.613   3.021  11.034 -2.2762  1.3704 -1.3213
 5024SOL     OW16512   0.719   5.523  10.757 -0.4381 -0.3748  0.0744
 5024SOL    HW116513   0.728   5.481  10.672  0.1014 -0.0673 -0.0212
 5024SOL    HW216514   0.794   5.582  10.764 -1.9040  1.6939 -0.4301
 5025SOL     OW16515   5.359   4.443   9.512  0.4007 -0.1506 -0.4247
 5025SOL    HW116516   5.447   4.406   9.518 -0.4081 -2.2609 -0.3996
 5025SOL    HW216517   5.353   4.477   9.423  1.7174  1.4389  0.0582
 5026SOL     OW16518   2.023   4.271   9.886 -0.1875 -0.0034  0.0184
 5026SOL    HW116519   2.015   4.259   9.792 -0.4601  2.1433 -0.2939
 5026SOL    HW216520   2.071   4.354   9.896 -1.8640  0.8499  1.7191
 5027SOL     OW16521   5.097   3.088   3.675  0.7598 -0.5483  0.5945
 5027SOL    HW116522   5.078   3.032   3.750  1.0597 -2.5391 -0.7423
 5027SOL    HW216523   5.038   3.163   3.686 -2.5328 -2.8994  0.5275
 5028SOL     OW16524   4.250   7.835   6.912 -0.4324 -0.5130  0.2869
 5028SOL    HW116525   4.195   7.869   6.842 -1.0532 -0.0091  1.0119
 5028SOL    HW216526   4.332   7.810   6.868 -1.0890 -0.9302 -0.7372
 5029SOL     OW16527   3.913   5.980  10.254 -0.1633 -0.4515 -0.2789
 5029SOL    HW116528   3.929   5.885  10.257  1.4538 -0.3007 -2.2650
 5029SOL    HW216529   3.856   5.992  10.178 -0.9881  0.1288  0.4110
 5030SOL     OW16530   0.565   7.461  11.348  0.5551 -0.3956 -0.4415
 5030SOL    HW116531   0.648   7.487  11.387 -1.1051  1.5308  2.1902
 5030SOL    HW216532   0.544   7.533  11.287 -0.9973  1.3610  1.9969
 5031SOL     OW16533   4.330   6.112   6.466  0.5836 -0.2066  0.2094
 5031SOL    HW116534   4.322   6.130   6.559  0.2961  0.5042  0.0493
 5031SOL    HW216535   4.336   6.198   6.425  0.2713 -0.4989 -0.4648
 5032SOL     OW16536   7.948   4.722   3.060  0.0027  0.6287  0.3253
 5032SOL    HW116537   7.979   4.720   2.970  1.0527 -2.0394  0.6592
 5032SOL    HW216538   7.857   4.751   3.053  0.2579  1.1323 -1.4884
 5033SOL     OW16539   2.429   4.906   2.896  0.3406  0.4989 -0.0061
 5033SOL    HW116540   2.495   4.969   2.865 -0.3511  1.7161  0.9138
 5033SOL    HW216541   2.388   4.874   2.816  0.7074  1.2249 -0.4977
 5034SOL     OW16542   7.152   0.405  12.078  0.0618  0.7350  0.6870
 5034SOL    HW116543   7.204   0.325  12.079 -1.2156 -0.2418 -1.6661
 5034SOL    HW216544   7.211   0.472  12.043 -0.0064 -0.2354 -1.4435
 5035SOL     OW16545   6.630   3.051  11.595  0.1996  0.3743  0.0682
 5035SOL    HW116546   6.707   3.066  11.650 -0.0499 -0.1884  0.5813
 5035SOL    HW216547   6.637   2.960  11.568 -0.8347 -0.0058  0.9974
 5036SOL     OW16548   3.833   7.888  10.222 -0.5868 -0.2438 -0.0669
 5036SOL    HW116549   3.857   7.950  10.291 -0.4072 -0.4420  0.0506
 5036SOL    HW216550   3.863   7.803  10.255 -0.1379 -0.2791 -0.5691
 5037SOL     OW16551   3.318   2.943   1.463  0.2906  0.7870  0.2779
 5037SOL    HW116552   3.379   2.989   1.404  0.7537  0.7093  0.6900
 5037SOL    HW216553   3.253   2.904   1.404  0.8282  0.5888 -0.1978
 5038SOL     OW16554   3.836   0.871   9.717 -0.2497 -0.0750  0.2497
 5038SOL    HW116555   3.868   0.956   9.685 -0.3614  0.0201  0.3883
 5038SOL    HW216556   3.836   0.880   9.812 -0.1249 -0.2818  0.2675
 5039SOL     OW16557   6.479   1.290   6.249  0.3113  0.1344  0.3416
 5039SOL    HW116558   6.511   1.298   6.339  0.9233  4.2208 -0.0795
 5039SOL    HW216559   6.556   1.306   6.194 -0.2301 -1.4049 -0.9747
 5040SOL     OW16560   0.911   1.420   9.385  0.4793  0.2180 -0.2844
 5040SOL    HW116561   0.934   1.471   9.463  1.9487  0.7883 -1.0395
 5040SOL    HW216562   0.906   1.484   9.314 -1.8794 -0.1405 -0.5291
 5041SOL     OW16563   7.821   5.181   1.786 -0.1684  0.2068  0.3646
 5041SOL    HW116564   7.790   5.248   1.726 -1.2489 -1.5720 -1.1673
 5041SOL    HW216565   7.916   5.186   1.782 -0.2420  1.1175 -0.3251
 5042SOL     OW16566   4.537   0.960   1.401  0.0512 -0.4823 -0.5244
 5042SOL    HW116567   4.515   1.020   1.472 -0.1378 -1.1527 -0.0056
 5042SOL    HW216568   4.590   0.892   1.442  1.7897  0.2400 -1.4439
 5043SOL     OW16569   1.999   1.412   3.198 -0.0689  0.5306  0.0880
 5043SOL    HW116570   2.013   1.386   3.107 -0.9171  0.5525 -0.0576
 5043SOL    HW216571   1.907   1.437   3.202 -0.2369 -0.1759  1.1175
 5044SOL     OW16572   4.730   6.627   8.377 -0.1964  0.0216  0.6331
 5044SOL    HW116573   4.750   6.591   8.463  0.5435 -0.5240  0.2369
 5044SOL    HW216574   4.815   6.649   8.339 -0.4241 -0.8988 -0.4505
 5045SOL     OW16575   7.859   5.570   2.829  0.0878 -0.4859 -0.1338
 5045SOL    HW116576   7.888   5.659   2.811 -3.3163  1.0491  1.0769
 5045SOL    HW216577   7.823   5.574   2.917 -2.9900 -2.1810 -1.1635
 5046SOL     OW16578   4.006   0.997   5.234 -0.3420  0.1685  0.6984
 5046SOL    HW116579   4.021   1.069   5.295  0.9830  0.1279  0.4590
 5046SOL    HW216580   4.026   1.034   5.148 -0.6446 -0.2052  0.4640
 5047SOL     OW16581   6.496   6.558   2.809  0.0442 -0.1097 -0.2446
 5047SOL    HW116582   6.531   6.486   2.756 -0.0793 -1.9472  1.9753
 5047SOL    HW216583   6.565   6.578   2.871 -0.9852 -0.3731  1.0362
 5048SOL     OW16584   2.257   2.617   0.968  0.3873  0.0824 -0.7945
 5048SOL    HW116585   2.193   2.580   1.029  1.1881  0.6138  0.4134
 5048SOL    HW216586   2.252   2.712   0.983  1.1311  0.1605 -0.9884
 5049SOL     OW16587   7.351   3.052   5.910  0.5002  0.5955 -0.1350
 5049SOL    HW116588   7.261   3.025   5.891  1.6505 -3.5168 -0.6169
 5049SOL    HW216589   7.399   3.035   5.829  2.2011 -0.0095  0.9483
 5050SOL     OW16590   2.413   5.092   4.369  0.5551 -0.0875 -0.4921
 5050SOL    HW116591   2.478   5.147   4.324  0.0406 -0.6804 -2.0172
 5050SOL    HW216592   2.409   5.012   4.317 -3.2749  0.9042 -2.0833
 5051SOL     OW16593   4.403   5.465   5.800 -0.6391  0.4391  0.0928
 5051SOL    HW116594   4.430   5.506   5.718 -0.9418  0.7348  0.1353
 5051SOL    HW216595   4.357   5.386   5.773 -0.7439  0.5391 -0.0258
 5052SOL     OW16596   3.135   2.300   3.627  0.0726 -0.2768 -0.3466
 5052SOL    HW116597   3.163   2.371   3.686  2.7835  1.2217 -3.1154
 5052SOL    HW216598   3.055   2.334   3.586  0.5872  0.6361 -0.6414
 5053SOL     OW16599   1.716   5.252  10.637  0.2536 -0.2336  0.8682
 5053SOL    HW116600   1.701   5.162  10.607  0.1952  0.1602 -0.3668
 5053SOL    HW216601   1.780   5.244  10.708  2.9667 -1.0346 -1.4650
 5054SOL     OW16602   2.717   1.059   3.191 -0.0646 -0.0890 -0.0667
 5054SOL    HW116603   2.767   1.141   3.196 -1.0072  0.5006 -0.0901
 5054SOL    HW216604   2.626   1.087   3.187 -0.4749 -1.1671  1.0254
 5055SOL     OW16605   6.594   0.985   0.917 -0.2765 -0.1340  0.5168
 5055SOL    HW116606   6.503   1.015   0.918 -0.4086 -0.4918 -0.2768
 5055SOL    HW216607   6.588   0.891   0.901  0.1910 -0.4031  1.7718
 5056SOL     OW16608   7.572   0.488   6.360  0.4960  0.3947 -0.1863
 5056SOL    HW116609   7.625   0.562   6.392 -0.1139  0.2583  1.2377
 5056SOL    HW216610   7.481   0.516   6.374  0.2613 -0.9946  1.3672
 5057SOL     OW16611   3.033   0.862   8.180 -0.0848 -0.6209  1.3626
 5057SOL    HW116612   3.088   0.829   8.251  0.2229 -3.1102  0.0698
 5057SOL    HW216613   2.992   0.783   8.143 -0.8770  0.6739 -0.6812
 5058SOL     OW16614   1.562   2.659   3.805  0.3564  0.1334  0.0346
 5058SOL    HW116615   1.534   2.567   3.807 -1.0417  0.5017 -0.8476
 5058SOL    HW216616   1.614   2.667   3.725 -2.0688  0.7183 -1.6047
 5059SOL     OW16617   6.440   1.457   4.680 -0.3233 -0.2154  0.3987
 5059SOL    HW116618   6.390   1.377   4.691  2.3047 -2.1190 -0.5999
 5059SOL    HW216619   6.426   1.505   4.762  0.4453 -3.1482  2.3931
 5060SOL     OW16620   1.264   2.843   3.132  0.1335 -0.0737  0.0679
 5060SOL    HW116621   1.297   2.768   3.081  0.6036  0.0165  0.2334
 5060SOL    HW216622   1.337   2.904   3.134 -0.4619  0.6761 -0.6002
 5061SOL     OW16623   0.756   4.044   7.302 -0.0239  0.0886 -0.3569
 5061SOL    HW116624   0.753   4.072   7.393  0.1599  0.7204 -0.5443
 5061SOL    HW216625   0.700   3.966   7.299 -2.7227  1.9014 -0.3605
 5062SOL     OW16626   5.659   2.535  11.957  0.1681 -0.5540 -0.0860
 5062SOL    HW116627   5.627   2.483  12.031 -0.2403 -0.5604 -0.2605
 5062SOL    HW216628   5.750   2.553  11.977 -0.1158 -0.0040  0.7327
 5063SOL     OW16629   1.983   7.345   2.503 -0.0574 -0.1444  0.0702
 5063SOL    HW116630   2.015   7.407   2.437  0.3354  1.1085  1.3897
 5063SOL    HW216631   1.944   7.274   2.452 -0.9554  1.4063 -1.5091
 5064SOL     OW16632   6.325   1.994  11.916  0.3224 -0.2133 -0.3297
 5064SOL    HW116633   6.306   2.032  11.830  0.9870  2.6248  0.6604
 5064SOL    HW216634   6.420   1.979  11.915  0.6136  1.3916  0.4164
 5065SOL     OW16635   7.557   1.979   0.339 -0.0080  0.6359 -0.0189
 5065SOL    HW116636   7.581   2.070   0.357 -1.1262  1.0236 -0.3709
 5065SOL    HW216637   7.549   1.939   0.426 -0.2663  1.0906  0.1722
 5066SOL     OW16638   4.199   3.738  11.379  0.8348 -0.0496  0.9198
 5066SOL    HW116639   4.185   3.826  11.414  1.3670  0.4188 -0.0131
 5066SOL    HW216640   4.176   3.679  11.451  0.5504  0.8527  1.5763
 5067SOL     OW16641   7.219   2.237   0.237  0.0460 -0.3625 -0.4033
 5067SOL    HW116642   7.235   2.291   0.160 -0.0405 -1.2435 -1.0586
 5067SOL    HW216643   7.254   2.151   0.214 -0.7047 -0.8589  0.2207
 5068SOL     OW16644   4.203   6.933   8.862 -0.2016 -0.4327  0.4514
 5068SOL    HW116645   4.110   6.913   8.866 -0.5684  0.9662 -0.6393
 5068SOL    HW216646   4.209   7.014   8.811  1.4482  0.6421  2.2266
 5069SOL     OW16647   2.137   0.498   4.125  0.0553 -0.1202 -0.0147
 5069SOL    HW116648   2.046   0.521   4.143 -0.3358 -1.2620 -0.4383
 5069SOL    HW216649   2.188   0.569   4.163 -0.9692  0.0927  1.0130
 5070SOL     OW16650   4.064   1.761   8.293  0.3027  0.8045 -0.7953
 5070SOL    HW116651   4.088   1.685   8.345  0.1312 -0.0135 -1.8611
 5070SOL    HW216652   3.970   1.750   8.276  0.6235  0.2552 -2.4565
 5071SOL     OW16653   1.603   1.034   7.910 -0.0346  0.4829 -0.6722
 5071SOL    HW116654   1.574   1.094   7.979 -1.6594  0.7674 -1.5419
 5071SOL    HW216655   1.623   1.091   7.836 -0.3725  0.0550 -1.1025
 5072SOL     OW16656   1.743   2.208   5.167 -0.4657 -0.0462 -0.6359
 5072SOL    HW116657   1.739   2.234   5.259 -0.2773 -2.4879  0.1403
 5072SOL    HW216658   1.830   2.170   5.157 -1.6326 -2.9295 -0.8270
 5073SOL     OW16659   7.511   0.000   6.187 -0.0216 -0.0728 -0.0433
 5073SOL    HW116660   7.469   0.069   6.136 -0.0611 -0.3528 -0.3894
 5073SOL    HW216661   7.487  -0.081   6.143 -0.5595 -0.3726  0.7649
 5074SOL     OW16662   7.406   4.751   4.013 -0.0819 -0.1591 -0.6431
 5074SOL    HW116663   7.336   4.702   3.970 -0.3597 -0.1334 -0.2329
 5074SOL    HW216664   7.360   4.813   4.070  0.2469  1.1293 -1.7306
 5075SOL     OW16665   0.630   1.147   4.389  0.1530 -0.4543  0.4069
 5075SOL    HW116666   0.686   1.077   4.422 -0.5190 -0.8950  0.6334
 5075SOL    HW216667   0.542   1.126   4.422  0.2080  1.3794  1.8943
 5076SOL     OW16668   3.840   5.606  11.032  0.1703 -0.5022 -0.8528
 5076SOL    HW116669   3.809   5.651  11.111  2.2521  1.0811 -0.8526
 5076SOL    HW216670   3.804   5.658  10.959  1.5602  0.5040 -0.8617
 5077SOL     OW16671   2.078   0.727   1.447 -0.0678  0.1873 -0.0721
 5077SOL    HW116672   2.057   0.820   1.438  1.0002  0.6952  1.9706
 5077SOL    HW216673   2.012   0.694   1.509 -0.1678 -0.3185 -0.4435
 5078SOL     OW16674   1.490   5.739  11.826 -0.3226 -0.1780 -0.4902
 5078SOL    HW116675   1.455   5.696  11.749  1.0776 -1.3012 -0.5378
 5078SOL    HW216676   1.583   5.718  11.826 -0.1906  0.2004  1.2341
 5079SOL     OW16677   3.046   3.567   6.091  0.1120  0.0371  0.1253
 5079SOL    HW116678   3.097   3.516   6.154 -1.1282 -2.0348 -0.4378
 5079SOL    HW216679   3.106   3.583   6.018  0.5772 -0.5078  0.3814
 5080SOL     OW16680   1.078   1.318   5.148  0.2510 -0.1109 -0.2297
 5080SOL    HW116681   1.063   1.388   5.211 -1.0828  0.4576 -1.1405
 5080SOL    HW216682   1.016   1.249   5.173  0.6267 -0.4239 -0.1464
 5081SOL     OW16683   2.087   5.769   5.020  0.8676  0.5512  0.2120
 5081SOL    HW116684   2.133   5.684   5.014  3.5491  1.9054 -0.1199
 5081SOL    HW216685   2.129   5.812   5.095 -0.5692  1.5675  0.4664
 5082SOL     OW16686   5.007   5.452   9.999 -0.3190 -0.3025 -0.2236
 5082SOL    HW116687   4.989   5.535   9.955  1.4150  0.6635  0.7732
 5082SOL    HW216688   4.940   5.447  10.068  0.7705  1.3179  1.0140
 5083SOL     OW16689   5.923   3.601  10.099  0.2232  0.4200  0.8254
 5083SOL    HW116690   5.956   3.671  10.044  0.9391  1.3727  2.3879
 5083SOL    HW216691   5.838   3.579  10.062  1.9549 -1.3207 -2.6323
 5084SOL     OW16692   4.132   6.187   7.507 -0.0052  0.4242 -0.2505
 5084SOL    HW116693   4.139   6.271   7.462  0.5769  0.9348  0.7734
 5084SOL    HW216694   4.141   6.208   7.600  0.0939 -0.7609  0.0248
 5085SOL     OW16695   2.284   3.858   7.611  0.4357  0.4372 -0.0337
 5085SOL    HW116696   2.276   3.896   7.699 -0.1328 -0.7182  0.4344
 5085SOL    HW216697   2.377   3.837   7.602  0.1409 -1.8052  1.3591
 5086SOL     OW16698   3.507   1.621   6.799  0.6501  0.6975 -0.4074
 5086SOL    HW116699   3.461   1.671   6.732  1.1797  2.4558  0.4689
 5086SOL    HW216700   3.441   1.602   6.865  0.1917 -0.7880 -1.2769
 5087SOL     OW16701   4.788   1.148   1.505  0.2624  0.0414  0.3422
 5087SOL    HW116702   4.758   1.147   1.414 -1.6201 -0.1854  0.9205
 5087SOL    HW216703   4.709   1.168   1.555  1.3491  0.5450  1.9072
 5088SOL     OW16704   1.806   7.220   2.233  0.1995 -0.0811 -0.4898
 5088SOL    HW116705   1.812   7.133   2.272 -1.2304  0.3069  0.7030
 5088SOL    HW216706   1.822   7.206   2.139 -0.2390 -1.6644 -0.3555
 5089SOL     OW16707   6.672   3.216   9.572  0.1903 -0.0721  0.5215
 5089SOL    HW116708   6.579   3.220   9.593  0.3633  0.2901  1.2817
 5089SOL    HW216709   6.715   3.259   9.647  0.8446  1.2958 -0.5952
 5090SOL     OW16710   0.753   2.870   6.356 -0.7129  0.2313  0.1337
 5090SOL    HW116711   0.696   2.813   6.304 -0.6776 -1.4345  1.7843
 5090SOL    HW216712   0.839   2.827   6.353 -0.1254  1.3908 -0.3311
 5091SOL     OW16713   1.708   6.723  12.026  0.1245 -0.0032 -0.3204
 5091SOL    HW116714   1.722   6.733  12.120  0.5251 -0.6585 -0.3040
 5091SOL    HW216715   1.748   6.802  11.988 -0.1840  0.3432  0.0666
 5092SOL     OW16716   6.347   7.516   6.778 -0.7644  0.1378 -0.1679
 5092SOL    HW116717   6.254   7.503   6.795 -0.3670 -1.0989  1.3379
 5092SOL    HW216718   6.360   7.610   6.787 -1.8037  0.2774  0.0339
 5093SOL     OW16719   6.014   0.245   3.437  0.2385  0.1130  0.3681
 5093SOL    HW116720   6.046   0.187   3.369 -2.7212  0.7360 -1.7423
 5093SOL    HW216721   5.957   0.190   3.491 -1.3024  0.6295 -0.6781
 5094SOL     OW16722   1.351   5.610   0.947 -0.1141 -0.4854  0.2670
 5094SOL    HW116723   1.275   5.569   0.905  0.5640 -0.9761 -0.5131
 5094SOL    HW216724   1.418   5.613   0.878  0.4021  0.4226  0.7901
 5095SOL     OW16725   1.951   0.089  10.282 -0.2935  0.5220  0.6290
 5095SOL    HW116726   1.873   0.047  10.320  0.5792 -0.7454  1.0889
 5095SOL    HW216727   1.945   0.069  10.189 -0.2541 -0.0189  0.7398
 5096SOL     OW16728   5.158   0.327  12.289  0.2813 -0.0998 -0.1371
 5096SOL    HW116729   5.227   0.372  12.240  1.5468  0.2711  1.8887
 5096SOL    HW216730   5.100   0.397  12.318 -1.1089 -0.4209 -1.9376
 5097SOL     OW16731   6.606   3.566   1.725 -0.1029 -0.2218  0.7384
 5097SOL    HW116732   6.568   3.546   1.810  1.3029  0.5222  1.5766
 5097SOL    HW216733   6.541   3.623   1.682 -0.5730 -0.1468  1.5336
 5098SOL     OW16734   1.325   5.613   3.135  0.1285  0.0012  0.5087
 5098SOL    HW116735   1.412   5.651   3.122  1.1877 -1.4548  2.5974
 5098SOL    HW216736   1.326   5.532   3.084 -0.0778  0.0953  0.3552
 5099SOL     OW16737   2.079   1.862   9.461  0.0610  0.2390 -0.5215
 5099SOL    HW116738   2.142   1.792   9.447  0.2890  0.2757  0.2489
 5099SOL    HW216739   2.006   1.842   9.402  0.0920 -0.6919 -0.2551
 5100SOL     OW16740   2.621   1.860   2.418  0.3125  0.0951  0.0752
 5100SOL    HW116741   2.611   1.831   2.509 -0.4891 -1.1734 -0.3995
 5100SOL    HW216742   2.557   1.931   2.409 -0.2080 -0.3424  0.2717
 5101SOL     OW16743   4.129   0.646   0.164 -0.0793 -0.0251 -0.8397
 5101SOL    HW116744   4.083   0.632   0.081 -0.4814  0.9415 -0.7847
 5101SOL    HW216745   4.155   0.558   0.192 -1.0014 -0.4776 -1.3776
 5102SOL     OW16746   0.654   5.548   5.371 -0.1286  0.6438  0.3964
 5102SOL    HW116747   0.629   5.458   5.351  0.3655  0.9211 -1.7419
 5102SOL    HW216748   0.643   5.556   5.465 -0.6742 -1.4972  0.5606
 5103SOL     OW16749   6.216   1.405   4.311  0.4265  0.4999  0.5619
 5103SOL    HW116750   6.212   1.325   4.258  0.8193  0.7108  0.2156
 5103SOL    HW216751   6.272   1.464   4.262  0.5407  0.8135  1.0615
 5104SOL     OW16752   7.777   5.234   2.962  0.1041 -0.0219 -0.1013
 5104SOL    HW116753   7.785   5.155   3.015  0.5610  0.6219  0.8197
 5104SOL    HW216754   7.763   5.202   2.872  0.7853 -1.1364  0.1767
 5105SOL     OW16755   4.248   0.914   7.087  0.8848 -0.3441 -0.1341
 5105SOL    HW116756   4.182   0.854   7.124 -0.6285  0.3408 -1.5814
 5105SOL    HW216757   4.201   0.997   7.077  1.4068 -0.2802 -2.7831
 5106SOL     OW16758   6.539   0.750   7.437 -0.7049  0.8832 -0.1091
 5106SOL    HW116759   6.539   0.746   7.533 -1.0170 -1.4284 -0.1578
 5106SOL    HW216760   6.463   0.699   7.410 -0.2619  0.9699 -1.6211
 5107SOL     OW16761   3.950   6.802   2.878  0.1952 -0.1379  0.5438
 5107SOL    HW116762   3.976   6.720   2.835  0.6287  0.6997 -0.8663
 5107SOL    HW216763   4.003   6.869   2.835 -1.2619  1.0777  0.5678
 5108SOL     OW16764   2.068   4.147   3.075 -0.8227  0.6422  0.2525
 5108SOL    HW116765   1.999   4.104   3.024 -2.3448  0.8149  2.0680
 5108SOL    HW216766   2.067   4.238   3.046  0.0366  0.2350 -1.1319
 5109SOL     OW16767   5.987   0.464   5.331 -0.3448  0.4798 -0.1171
 5109SOL    HW116768   6.002   0.558   5.338  1.5460  0.2078  0.0219
 5109SOL    HW216769   6.056   0.433   5.272 -1.1440 -0.7819 -0.4389
 5110SOL     OW16770   6.510   5.374   3.460 -0.6268  0.1366 -0.4244
 5110SOL    HW116771   6.510   5.405   3.551 -0.8088 -1.9456  0.3393
 5110SOL    HW216772   6.423   5.336   3.448 -0.2031 -0.6548 -1.0780
 5111SOL     OW16773   4.537   7.795   5.376 -0.1417 -0.5736  0.6409
 5111SOL    HW116774   4.611   7.848   5.403  0.4312 -1.0274 -0.0116
 5111SOL    HW216775   4.497   7.766   5.458  0.4782 -0.4338  0.9983
 5112SOL     OW16776   3.615   6.975   5.896  0.3194 -0.5168  0.0400
 5112SOL    HW116777   3.619   6.880   5.892 -0.4273 -0.5352 -0.5594
 5112SOL    HW216778   3.560   7.000   5.821  0.1433  0.3520  0.4431
 5113SOL     OW16779   2.941   4.556   3.693  0.5072  0.7047 -0.0664
 5113SOL    HW116780   2.992   4.480   3.664 -0.9441 -0.0918 -0.6262
 5113SOL    HW216781   2.932   4.544   3.788  0.8053  0.5081 -0.0626
 5114SOL     OW16782   7.492   6.276   4.754 -0.1046 -0.1544  0.5789
 5114SOL    HW116783   7.535   6.340   4.698  0.4011 -0.9683  0.0182
 5114SOL    HW216784   7.528   6.293   4.842 -0.4565  0.7296  0.5674
 5115SOL     OW16785   1.088   0.970   1.048 -0.1233 -0.0446 -0.0484
 5115SOL    HW116786   1.042   0.975   1.132 -0.2675 -1.2350 -0.0412
 5115SOL    HW216787   1.067   1.052   1.004 -1.2582 -0.0541  0.4554
 5116SOL     OW16788   1.205   5.721   1.664  0.3192 -0.1665 -0.0162
 5116SOL    HW116789   1.181   5.728   1.572  3.0572  0.2222 -0.8171
 5116SOL    HW216790   1.191   5.629   1.687  0.7430 -0.5459 -1.2125
 5117SOL     OW16791   5.108   5.509   1.893  0.3647 -0.0206 -0.1823
 5117SOL    HW116792   5.066   5.593   1.908  0.6028  0.2212 -0.8266
 5117SOL    HW216793   5.118   5.471   1.980  0.6012  0.7861  0.1498
 5118SOL     OW16794   0.226   1.280   2.253  0.3111 -0.0029  0.4715
 5118SOL    HW116795   0.213   1.334   2.175  1.0671 -0.1345  0.2539
 5118SOL    HW216796   0.271   1.337   2.315 -1.0717  0.3857  1.1545
 5119SOL     OW16797   6.547   6.652  10.314 -0.5226  1.1094 -0.5709
 5119SOL    HW116798   6.503   6.721  10.264 -1.4969  0.4139 -0.7121
 5119SOL    HW216799   6.485   6.579  10.314 -0.4642  1.0052  1.4800
 5120SOL     OW16800   7.178   3.056   8.524 -0.9015 -0.1678  0.4608
 5120SOL    HW116801   7.176   3.041   8.430 -1.0948  0.2144  0.4002
 5120SOL    HW216802   7.193   3.150   8.533  0.5273 -0.4092  0.8322
 5121SOL     OW16803   2.967   6.496   6.188  0.4685  0.2878  0.2806
 5121SOL    HW116804   2.953   6.486   6.282  1.2700 -0.6692  0.3091
 5121SOL    HW216805   3.018   6.577   6.180 -0.2874  0.8102  0.5865
 5122SOL     OW16806   4.009   6.194   6.016 -0.0655  0.4684  0.0794
 5122SOL    HW116807   4.090   6.143   6.025  0.3567  1.0617 -0.2670
 5122SOL    HW216808   3.980   6.178   5.927 -1.1081 -0.8529  0.6320
 5123SOL     OW16809   0.010   0.325   0.286 -0.0554 -0.4945 -0.4708
 5123SOL    HW116810  -0.067   0.301   0.234  0.3709 -1.0322 -0.8595
 5123SOL    HW216811  -0.011   0.295   0.375  0.1509 -1.6507 -0.7944
 5124SOL     OW16812   5.963   0.620   9.793  0.1356  0.0653  0.5528
 5124SOL    HW116813   6.027   0.651   9.857 -0.4902  0.5989  0.9353
 5124SOL    HW216814   5.898   0.573   9.845  0.0013 -0.1189  0.2207
 5125SOL     OW16815   0.796   2.110  12.155 -0.0851 -0.1335 -0.0103
 5125SOL    HW116816   0.821   2.110  12.247  0.5650  4.1266 -0.0005
 5125SOL    HW216817   0.700   2.112  12.156 -0.0706  0.3343  0.6067
 5126SOL     OW16818   0.563   4.550   5.756 -0.1401 -0.0455 -0.0349
 5126SOL    HW116819   0.566   4.643   5.778  2.3047 -0.1508  0.4407
 5126SOL    HW216820   0.498   4.543   5.686 -1.3414  1.7834  0.8314
 5127SOL     OW16821   5.470   0.389   8.765 -0.1933 -0.3909 -0.0620
 5127SOL    HW116822   5.436   0.312   8.720  0.7307 -0.1762 -1.1727
 5127SOL    HW216823   5.413   0.399   8.842 -1.1421 -1.3900 -0.6078
 5128SOL     OW16824   5.456   2.686   7.843  0.2262  0.5268 -0.1472
 5128SOL    HW116825   5.461   2.776   7.812 -0.4761  1.6334  2.6023
 5128SOL    HW216826   5.538   2.672   7.891  0.9226 -0.8121 -1.6246
 5129SOL     OW16827   1.771   1.529   0.074 -0.4053  0.6523  0.5906
 5129SOL    HW116828   1.826   1.463   0.116  1.2047  1.0059 -0.8774
 5129SOL    HW216829   1.683   1.490   0.075  0.0298 -0.4081  1.9641
 5130SOL     OW16830   5.109   3.382   8.090 -0.0107  0.1497 -0.2361
 5130SOL    HW116831   5.053   3.407   8.163 -1.5042 -1.0972 -0.9076
 5130SOL    HW216832   5.072   3.426   8.014 -0.4297 -1.1019 -0.7792
 5131SOL     OW16833   6.512   6.635   4.069 -0.1759 -0.1752  0.1437
 5131SOL    HW116834   6.433   6.682   4.096  0.1751 -0.6465  2.1273
 5131SOL    HW216835   6.584   6.684   4.109  0.4606 -0.4149 -0.6750
 5132SOL     OW16836   0.591   7.367   4.157  0.3082 -0.2415  0.2945
 5132SOL    HW116837   0.659   7.300   4.150 -1.8558 -2.5771  0.1687
 5132SOL    HW216838   0.576   7.377   4.251 -0.4077 -1.0758  0.2731
 5133SOL     OW16839   2.758   2.789   6.114  0.0831  0.3160  0.3969
 5133SOL    HW116840   2.813   2.868   6.107  1.1566 -0.4683 -0.3251
 5133SOL    HW216841   2.820   2.717   6.116 -0.9326 -0.6586 -1.3082
 5134SOL     OW16842   3.641   7.746  10.502  0.5765 -0.6717 -0.1863
 5134SOL    HW116843   3.551   7.732  10.472  1.0593  0.9688 -2.7851
 5134SOL    HW216844   3.690   7.672  10.466  0.7578  0.0940 -1.5809
 5135SOL     OW16845   1.862   3.123   4.021 -0.3141  0.6416 -0.4109
 5135SOL    HW116846   1.807   3.054   3.984 -0.2045  0.8689 -1.0148
 5135SOL    HW216847   1.942   3.079   4.048 -0.1008  0.5833 -1.1190
 5136SOL     OW16848   2.147   6.249   1.755 -0.1492 -0.2763 -0.2814
 5136SOL    HW116849   2.184   6.173   1.800  2.3614 -0.6499 -2.7083
 5136SOL    HW216850   2.148   6.318   1.821 -0.3733 -1.7467  1.3363
 5137SOL     OW16851   4.131   2.299   3.823 -0.2194  0.3626  0.2838
 5137SOL    HW116852   4.157   2.343   3.742  1.9514 -0.7470  0.3327
 5137SOL    HW216853   4.141   2.366   3.890  0.5731  0.5446 -0.0035
 5138SOL     OW16854   4.194   0.005   8.359  0.1591  0.0469  0.1081
 5138SOL    HW116855   4.200  -0.080   8.404 -0.5018  0.9669  2.0544
 5138SOL    HW216856   4.283   0.021   8.326  0.1775 -1.5987 -0.7435
 5139SOL     OW16857   0.061   7.715   5.528  0.3542  0.3849 -0.1398
 5139SOL    HW116858   0.008   7.751   5.457 -0.0772 -0.8793 -0.4785
 5139SOL    HW216859  -0.001   7.704   5.600 -0.0881 -1.8390 -0.7859
 5140SOL     OW16860   0.320   5.861  11.116 -0.2037 -0.0764 -0.0566
 5140SOL    HW116861   0.280   5.780  11.146 -0.8421  0.1833 -0.1824
 5140SOL    HW216862   0.344   5.907  11.197 -0.3554 -0.1353  0.0211
 5141SOL     OW16863   5.295   5.307  10.277 -0.0821  0.7543  0.2478
 5141SOL    HW116864   5.235   5.237  10.303 -0.7572  1.6088  1.0522
 5141SOL    HW216865   5.381   5.275  10.303  0.0922 -1.1897 -2.3524
 5142SOL     OW16866   5.455   0.361   7.570  0.1157  0.5662 -0.1086
 5142SOL    HW116867   5.369   0.330   7.544  0.4120  0.6874 -1.3222
 5142SOL    HW216868   5.512   0.285   7.561  0.6845  1.1904 -2.2800
 5143SOL     OW16869   6.261   2.930   6.760  0.4588  0.5462  0.1234
 5143SOL    HW116870   6.166   2.941   6.763  0.2213 -1.0182 -0.6634
 5143SOL    HW216871   6.289   2.981   6.684 -0.0816 -0.7787 -1.0131
 5144SOL     OW16872   1.338   1.544   8.037 -0.0233 -0.3105 -0.0611
 5144SOL    HW116873   1.352   1.635   8.064 -0.5063 -0.3890  0.4936
 5144SOL    HW216874   1.300   1.502   8.115 -1.4758 -0.5597 -0.8636
 5145SOL     OW16875   6.170   3.091   9.718  0.0586  0.4143  0.3446
 5145SOL    HW116876   6.100   3.029   9.699  0.7606 -0.3626  0.2248
 5145SOL    HW216877   6.128   3.159   9.770 -0.6440 -0.3952  0.8786
 5146SOL     OW16878   1.875   4.133   2.450  0.1581  0.3897 -0.7919
 5146SOL    HW116879   1.862   4.063   2.386 -1.7246 -0.3672  0.3635
 5146SOL    HW216880   1.930   4.197   2.404  0.3648 -0.9555 -2.5150
 5147SOL     OW16881   5.535   5.930   3.295 -0.1024 -0.2032  0.0238
 5147SOL    HW116882   5.492   5.927   3.210 -0.7873 -0.7552  0.3783
 5147SOL    HW216883   5.567   6.020   3.303  1.3568 -0.5510 -1.4707
 5148SOL     OW16884   7.411   7.257   7.382 -0.4567 -0.2762  0.5132
 5148SOL    HW116885   7.358   7.234   7.305 -0.7861  1.9886  0.0035
 5148SOL    HW216886   7.361   7.326   7.426  1.1611  0.5723  1.0877
 5149SOL     OW16887   5.811   1.086   1.763  0.3839 -0.6131 -0.6781
 5149SOL    HW116888   5.819   1.062   1.670  2.3628  0.7367 -0.9317
 5149SOL    HW216889   5.744   1.154   1.764  0.0049 -0.9754 -1.0442
 5150SOL     OW16890   0.624   3.959   5.920 -0.0820  0.3115  0.1542
 5150SOL    HW116891   0.555   3.961   5.853 -0.1078 -0.5145  0.1483
 5150SOL    HW216892   0.665   3.873   5.909  0.6362  0.6091  0.4785
 5151SOL     OW16893   1.778   5.981   6.640 -0.3221 -0.1383  0.2890
 5151SOL    HW116894   1.853   5.924   6.620 -0.0724  0.2900 -0.0062
 5151SOL    HW216895   1.810   6.037   6.711  0.0503  0.8441 -0.6264
 5152SOL     OW16896   5.965   0.705   0.403  0.4410  0.3137 -0.2010
 5152SOL    HW116897   5.937   0.697   0.311  1.4672 -2.2855 -0.3658
 5152SOL    HW216898   6.009   0.622   0.422  0.1878  0.7440  2.6956
 5153SOL     OW16899   3.485   2.025   9.642  0.4552  0.1007 -0.1234
 5153SOL    HW116900   3.577   2.001   9.632  0.3637 -0.6495  0.6814
 5153SOL    HW216901   3.461   1.992   9.728 -0.4519  0.6923 -0.1317
 5154SOL     OW16902   7.624   6.238  10.131  0.4670  0.5172  0.0538
 5154SOL    HW116903   7.655   6.248  10.041 -1.0302 -1.2087 -0.7171
 5154SOL    HW216904   7.539   6.282  10.133  1.1784  1.9322  1.1116
 5155SOL     OW16905   2.202   2.771   2.904 -0.2251  0.1835 -0.3710
 5155SOL    HW116906   2.167   2.710   2.969  0.2812  0.6922  0.4118
 5155SOL    HW216907   2.126   2.822   2.875 -0.1416  1.5196  1.5648
 5156SOL     OW16908   6.986   7.359   5.600  0.1263 -0.3816  0.4986
 5156SOL    HW116909   6.914   7.331   5.656 -0.9977  2.9009  0.9041
 5156SOL    HW216910   6.958   7.334   5.512 -0.3767 -1.2456  0.8877
 5157SOL     OW16911   0.944   1.574   1.164  0.2473 -0.0755  0.0451
 5157SOL    HW116912   0.945   1.518   1.086  1.4713  1.2964 -0.9795
 5157SOL    HW216913   0.905   1.520   1.232  1.3109 -2.1443 -0.9166
 5158SOL     OW16914   1.653   5.542   0.503  0.1507 -0.6201  0.0569
 5158SOL    HW116915   1.748   5.549   0.498  0.0799 -0.4162 -1.3936
 5158SOL    HW216916   1.622   5.570   0.417 -1.3909  2.0592  1.3486
 5159SOL     OW16917   4.408   4.898   1.768 -0.3135 -0.0821  0.5248
 5159SOL    HW116918   4.339   4.832   1.763 -0.6659  0.1535  1.8470
 5159SOL    HW216919   4.361   4.980   1.785  0.2139  0.2857  0.2285
 5160SOL     OW16920   7.324   7.786  11.766 -0.6718 -0.6759 -0.2480
 5160SOL    HW116921   7.248   7.729  11.751  0.6201 -3.0726  1.4799
 5160SOL    HW216922   7.321   7.804  11.860  0.0151  0.5774 -0.4558
 5161SOL     OW16923   7.892   6.904   5.293  0.2453 -0.2597 -0.5191
 5161SOL    HW116924   7.819   6.850   5.323 -0.3412 -0.4037 -2.0806
 5161SOL    HW216925   7.855   6.955   5.221  1.1905  1.1396 -0.0472
 5162SOL     OW16926   7.126   4.116   1.683 -0.6153 -0.1888 -0.2194
 5162SOL    HW116927   7.109   4.107   1.776 -1.8633 -0.6835 -0.4709
 5162SOL    HW216928   7.139   4.026   1.652  1.1566  0.0687 -0.3069
 5163SOL     OW16929   3.490   4.997   3.621  0.0048  0.5176  0.1897
 5163SOL    HW116930   3.517   4.907   3.605  1.2000  0.6282  1.4781
 5163SOL    HW216931   3.468   5.000   3.714 -0.8802  1.3526 -0.0279
 5164SOL     OW16932   7.800   4.229   7.443 -0.1139 -0.2591 -0.5911
 5164SOL    HW116933   7.738   4.264   7.506  0.1073 -2.7097  1.1228
 5164SOL    HW216934   7.871   4.293   7.440 -0.2200  0.0046  1.5612
 5165SOL     OW16935   4.134   1.172   0.045 -0.5313 -0.1814 -0.4021
 5165SOL    HW116936   4.128   1.109  -0.028  1.3712  0.6936 -1.3914
 5165SOL    HW216937   4.171   1.122   0.117 -1.1630 -0.7321 -0.4498
 5166SOL     OW16938   6.941   3.068   9.874  0.2831 -0.3872 -0.0353
 5166SOL    HW116939   7.016   3.128   9.878 -1.0924  1.4069 -0.0360
 5166SOL    HW216940   6.946   3.018   9.956  0.1085  1.4616  1.1515
 5167SOL     OW16941   6.584   4.666   5.429 -0.3268  0.2436  0.0934
 5167SOL    HW116942   6.553   4.755   5.445  1.5660  1.3819 -2.1238
 5167SOL    HW216943   6.668   4.662   5.474  0.2396  0.0733 -0.9568
 5168SOL     OW16944   3.244   7.276   5.545 -0.6226  0.0722 -0.1826
 5168SOL    HW116945   3.193   7.197   5.560  1.4891 -1.2830  0.1993
 5168SOL    HW216946   3.178   7.344   5.529 -2.7194 -0.7414  3.7825
 5169SOL     OW16947   1.709   1.033  11.266 -0.1173  0.3395 -0.3987
 5169SOL    HW116948   1.774   0.998  11.327  0.0633  0.3108 -0.6049
 5169SOL    HW216949   1.758   1.047  11.185 -0.4679 -0.0917 -0.6907
 5170SOL     OW16950   6.912   2.408   1.221  0.5334 -0.2314  0.2615
 5170SOL    HW116951   6.949   2.392   1.134  0.3658 -0.1957  0.1839
 5170SOL    HW216952   6.871   2.493   1.214  0.5946 -0.1906  0.4017
 5171SOL     OW16953   5.308   3.372   8.966  0.4297 -0.1434  0.3860
 5171SOL    HW116954   5.245   3.412   8.906  0.2356  0.7453  1.1507
 5171SOL    HW216955   5.361   3.445   8.997  3.0680 -1.0993 -1.5921
 5172SOL     OW16956   1.005   2.199  11.566  0.0322  0.1220 -0.5796
 5172SOL    HW116957   1.042   2.202  11.478  0.3368  0.5642 -0.4396
 5172SOL    HW216958   1.076   2.167  11.622 -0.5245 -1.3293 -0.6733
 5173SOL     OW16959   0.831   0.197   2.733  0.1237  0.5081 -0.9230
 5173SOL    HW116960   0.742   0.219   2.706 -0.3042 -1.2331 -1.0344
 5173SOL    HW216961   0.852   0.260   2.802 -1.2561  0.8088 -0.7563
 5174SOL     OW16962   4.096   3.765   7.133 -0.4849  0.5389 -0.3924
 5174SOL    HW116963   4.107   3.796   7.223 -0.1541  0.2457 -0.3295
 5174SOL    HW216964   4.184   3.739   7.106 -0.7117 -0.0959 -0.5360
 5175SOL     OW16965   2.806   6.351   0.031  0.1440  0.0380 -0.3945
 5175SOL    HW116966   2.865   6.366   0.105  0.0416 -0.1116 -0.2826
 5175SOL    HW216967   2.863   6.323  -0.040  0.2922  0.5692 -0.4909
 5176SOL     OW16968   1.385   1.951   8.305  0.4522  0.1813  0.3598
 5176SOL    HW116969   1.444   2.024   8.326  0.0230  0.3416  1.0327
 5176SOL    HW216970   1.443   1.876   8.292  0.9168  0.6747 -0.5326
 5177SOL     OW16971   5.597   6.567   7.321  0.4873  0.0010  0.2893
 5177SOL    HW116972   5.558   6.584   7.235  1.8458  0.2227 -0.3095
 5177SOL    HW216973   5.686   6.602   7.314 -0.0445  2.0854  2.5121
 5178SOL     OW16974   2.051   0.822  10.053  0.0173 -0.2797  0.0822
 5178SOL    HW116975   2.011   0.735  10.043 -0.4792 -0.2829  1.8340
 5178SOL    HW216976   2.128   0.806  10.107 -1.0027  0.5682  1.8624
 5179SOL     OW16977   6.598   0.237   6.501  0.2224  0.0333 -0.1908
 5179SOL    HW116978   6.674   0.227   6.557 -0.2965  2.3000  1.0613
 5179SOL    HW216979   6.630   0.286   6.425  0.3775 -0.7073 -0.6146
 5180SOL     OW16980   6.037   6.910   9.163 -0.6813  0.2689 -0.1062
 5180SOL    HW116981   6.117   6.860   9.180 -0.9515 -0.2933 -0.4594
 5180SOL    HW216982   6.057   6.999   9.193  0.3416  0.3204 -0.9189
 5181SOL     OW16983   2.228   5.981   1.805 -0.3787  0.0868 -0.7146
 5181SOL    HW116984   2.292   5.926   1.850 -1.9058 -0.9729  0.2413
 5181SOL    HW216985   2.173   5.919   1.757 -0.8606  0.9605 -1.3251
 5182SOL     OW16986   5.458   2.461   2.156  0.2676  0.1676  0.1831
 5182SOL    HW116987   5.446   2.555   2.141 -1.3846 -0.1260 -0.5761
 5182SOL    HW216988   5.452   2.451   2.251  0.3205  0.8142  0.2603
 5183SOL     OW16989   3.077   1.429   6.256 -0.1338  0.4607  0.4717
 5183SOL    HW116990   3.028   1.454   6.177 -1.0389  0.2860  0.9691
 5183SOL    HW216991   3.094   1.512   6.301  1.4204  0.6965 -0.4713
 5184SOL     OW16992   4.220   4.253   9.740 -0.5415 -0.1274 -0.3544
 5184SOL    HW116993   4.149   4.244   9.676 -1.5388 -0.9125  0.7973
 5184SOL    HW216994   4.287   4.191   9.712 -0.5145  0.2829 -1.2036
 5185SOL     OW16995   4.001   7.872   6.461 -0.4462 -0.2674  0.0996
 5185SOL    HW116996   3.983   7.780   6.445  0.4859 -0.6839  1.3337
 5185SOL    HW216997   4.090   7.874   6.496 -0.2953  1.1413 -0.3175
 5186SOL     OW16998   0.341   0.715   8.320  0.7933  0.0920 -0.1296
 5186SOL    HW116999   0.358   0.764   8.401 -1.7484 -0.3148  0.7299
 5186SOL    HW217000   0.293   0.638   8.349  1.5087 -1.0539 -1.8761
 5187SOL     OW17001   5.744   7.909  12.133  0.0281  0.0845 -0.3052
 5187SOL    HW117002   5.734   7.820  12.100 -0.4416  0.5451 -1.4627
 5187SOL    HW217003   5.729   7.965  12.056 -0.7587  1.1893  0.6121
 5188SOL     OW17004   7.016   7.057   5.931  0.6112 -0.4242  0.8162
 5188SOL    HW117005   7.103   7.071   5.894 -0.7051  0.2646 -2.3381
 5188SOL    HW217006   6.997   7.138   5.979  0.6004  0.6972 -1.0017
 5189SOL     OW17007   5.143   6.300  11.264  0.2530 -0.0311 -0.5283
 5189SOL    HW117008   5.066   6.345  11.300 -1.4818 -2.5314 -0.7978
 5189SOL    HW217009   5.183   6.258  11.340  1.3690  1.2059 -0.4009
 5190SOL     OW17010   0.573   2.391  12.276 -0.3381  0.4057 -0.0684
 5190SOL    HW117011   0.668   2.383  12.288 -0.3963 -0.1908  0.0248
 5190SOL    HW217012   0.563   2.411  12.183 -0.0695  1.6069  0.1421
 5191SOL     OW17013   5.619   7.310   1.783  0.2036  0.3089  0.1464
 5191SOL    HW117014   5.714   7.319   1.786  0.6500 -2.8813 -0.6817
 5191SOL    HW217015   5.601   7.232   1.836 -1.9976  0.9999  0.4986
 5192SOL     OW17016   5.889   7.039   2.130  0.0794  0.3868 -0.2686
 5192SOL    HW117017   5.867   7.003   2.044 -2.3722  4.2639 -1.5031
 5192SOL    HW217018   5.973   7.084   2.116  0.1219  0.2633 -0.4076
 5193SOL     OW17019   0.564   6.597  12.068  0.5820 -0.5610 -0.4707
 5193SOL    HW117020   0.630   6.532  12.042  0.0283 -0.7698 -1.3906
 5193SOL    HW217021   0.583   6.614  12.160  1.4464 -1.1884 -0.5184
 5194SOL     OW17022   1.774   2.267   5.433  0.1952 -0.1532 -0.3177
 5194SOL    HW117023   1.790   2.244   5.525  1.3957 -2.9443 -1.1252
 5194SOL    HW217024   1.805   2.357   5.426  0.5003 -0.0067  1.9030
 5195SOL     OW17025   6.750   5.175   3.488  0.0053  0.0177  0.6388
 5195SOL    HW117026   6.677   5.230   3.458  0.0595 -0.2198  0.0707
 5195SOL    HW217027   6.782   5.132   3.409  1.3863  0.8420  0.7168
 5196SOL     OW17028   3.684   3.874   3.913 -0.1619 -0.0531 -0.5238
 5196SOL    HW117029   3.605   3.922   3.935 -0.6549 -1.0482 -0.0562
 5196SOL    HW217030   3.658   3.814   3.843  0.1343 -0.4775 -0.2805
 5197SOL     OW17031   2.551   3.613  11.580  0.6575 -0.0453 -0.0989
 5197SOL    HW117032   2.579   3.524  11.603  1.0782 -0.3499 -1.6780
 5197SOL    HW217033   2.456   3.609  11.582  0.6196 -0.9949 -1.6288
 5198SOL     OW17034   0.097   5.262   7.247 -0.5802 -0.1889  0.3815
 5198SOL    HW117035   0.117   5.325   7.316 -0.2780  0.9292 -0.6735
 5198SOL    HW217036   0.160   5.191   7.260  0.4990  0.7241  0.3703
 5199SOL     OW17037   4.000   0.553  10.902  0.0954  0.2468  0.2786
 5199SOL    HW117038   3.984   0.601  10.983 -0.2906 -0.5245  0.6658
 5199SOL    HW217039   4.095   0.557  10.889 -0.0296  2.1763 -0.3670
 5200SOL     OW17040   4.670   0.887   4.526  0.1580 -0.4229 -0.3502
 5200SOL    HW117041   4.597   0.829   4.548  0.4422 -0.3900  0.7295
 5200SOL    HW217042   4.633   0.950   4.464 -0.6196 -0.6575 -0.1341
 5201SOL     OW17043   4.462   5.671   9.859 -0.0288  0.2898 -0.6960
 5201SOL    HW117044   4.552   5.640   9.856 -0.2484 -0.6344  1.0457
 5201SOL    HW217045   4.409   5.593   9.842 -0.5456 -0.0199  1.9582
 5202SOL     OW17046   2.001   6.921  12.110  0.3324 -0.4512  0.0554
 5202SOL    HW117047   2.025   6.985  12.177  0.2108 -0.1846 -0.1509
 5202SOL    HW217048   1.911   6.896  12.133 -0.3483  0.9223 -0.9707
 5203SOL     OW17049   0.826   6.208   6.454 -0.2393 -0.4941  0.5746
 5203SOL    HW117050   0.785   6.285   6.416 -1.1193 -1.2220  0.0065
 5203SOL    HW217051   0.868   6.164   6.380  1.9145  0.4045  1.1904
 5204SOL     OW17052   3.532   1.384  12.089 -0.7298  0.1161  0.0627
 5204SOL    HW117053   3.507   1.469  12.124  0.3631  0.0215  1.1144
 5204SOL    HW217054   3.539   1.327  12.165 -1.1571 -0.8545 -0.5995
 5205SOL     OW17055   2.903   0.326   3.578  0.1279 -0.5941 -0.1235
 5205SOL    HW117056   2.968   0.257   3.580 -2.8323 -3.8971 -3.1656
 5205SOL    HW217057   2.943   0.396   3.526  2.2414 -1.1127  0.7175
 5206SOL     OW17058   3.805   7.338   6.799 -1.1042 -0.3678 -0.1219
 5206SOL    HW117059   3.823   7.277   6.727  0.4018 -0.3257  0.1961
 5206SOL    HW217060   3.722   7.306   6.836 -2.0167 -0.2794 -1.9623
 5207SOL     OW17061   1.648   4.819   5.938 -0.4249 -0.0182 -0.1252
 5207SOL    HW117062   1.637   4.758   6.010 -1.9732 -1.3133 -1.3985
 5207SOL    HW217063   1.600   4.897   5.964  0.8775  0.3962  1.1537
 5208SOL     OW17064   5.597   0.081   3.580  0.1911 -0.0873  0.1991
 5208SOL    HW117065   5.571   0.047   3.495 -1.6065  0.5387  0.4459
 5208SOL    HW217066   5.692   0.089   3.575  0.1831 -0.6428 -1.5150
 5209SOL     OW17067   7.457   7.217   0.117 -0.2009  0.2145  0.2798
 5209SOL    HW117068   7.386   7.246   0.173 -0.9674  2.9335 -1.8363
 5209SOL    HW217069   7.425   7.137   0.076 -0.6966 -0.3295  1.6778
 5210SOL     OW17070   6.649   0.586  11.658 -0.9527  0.2279 -0.4946
 5210SOL    HW117071   6.722   0.542  11.614 -1.4558 -0.9729 -0.1699
 5210SOL    HW217072   6.691   0.636  11.729 -0.4036 -0.1390 -0.5512
 5211SOL     OW17073   1.335   2.538  10.624  0.0776  0.6094 -0.1313
 5211SOL    HW117074   1.282   2.573  10.553  0.0168  0.4218 -0.1797
 5211SOL    HW217075   1.347   2.445  10.602  0.0738  0.5539  0.0925
 5212SOL     OW17076   5.833   5.088   9.738 -0.0591 -0.5342 -0.1063
 5212SOL    HW117077   5.893   5.138   9.683  1.3025 -1.1056  0.8126
 5212SOL    HW217078   5.820   5.006   9.691  1.4161 -1.1838  0.5635
 5213SOL     OW17079   3.807   6.440  11.383  0.2256  0.2177 -0.4730
 5213SOL    HW117080   3.780   6.531  11.387 -0.1314  0.1086 -0.3406
 5213SOL    HW217081   3.756   6.397  11.452  2.9131  0.5646  1.9084
 5214SOL     OW17082   5.493   3.179   8.704 -0.3474 -0.2011 -0.0274
 5214SOL    HW117083   5.520   3.232   8.779  1.5909 -0.4832 -0.4711
 5214SOL    HW217084   5.566   3.119   8.690 -1.2258 -1.0079 -1.3570
 5215SOL     OW17085   7.578   5.451   1.917 -0.2988  0.0592 -0.1815
 5215SOL    HW117086   7.609   5.366   1.948  0.8643  0.4783 -0.1680
 5215SOL    HW217087   7.652   5.510   1.929 -0.6189  0.7745 -1.5065
 5216SOL     OW17088   3.457   4.255   2.157 -0.8200  0.4290  0.3921
 5216SOL    HW117089   3.491   4.168   2.178 -0.9241  0.1192 -0.6946
 5216SOL    HW217090   3.394   4.274   2.227 -0.4638 -0.1703  0.8796
 5217SOL     OW17091   0.534   0.340   5.581 -0.2711  0.0340 -0.4812
 5217SOL    HW117092   0.622   0.305   5.568 -0.6403 -1.4429  0.7523
 5217SOL    HW217093   0.481   0.295   5.516 -0.2305  0.4641 -0.8136
 5218SOL     OW17094   1.480   4.656  11.660 -0.3967 -0.0207 -0.1484
 5218SOL    HW117095   1.469   4.670  11.754  3.0343 -0.4509  0.4735
 5218SOL    HW217096   1.524   4.571  11.654  3.7805  1.9401 -1.5842
 5219SOL     OW17097   6.428   7.158   5.516  0.2016 -0.1822  0.4899
 5219SOL    HW117098   6.456   7.249   5.514 -0.6527  0.0817 -1.9520
 5219SOL    HW217099   6.373   7.152   5.594 -1.1323  1.8523 -0.2095
 5220SOL     OW17100   7.901   3.330   2.079 -0.2061 -0.6335 -0.6173
 5220SOL    HW117101   7.917   3.238   2.058  2.6988 -0.5486  0.7259
 5220SOL    HW217102   7.878   3.330   2.172 -2.5582 -0.1288 -1.1380
 5221SOL     OW17103   3.253   3.619  11.860 -0.4313  0.6558 -0.0748
 5221SOL    HW117104   3.263   3.632  11.765  2.2437  0.2384  0.0565
 5221SOL    HW217105   3.238   3.526  11.870  0.6333  0.4708 -0.0609
 5222SOL     OW17106   4.880   6.302  11.097  0.2356  0.1571 -0.4096
 5222SOL    HW117107   4.827   6.351  11.034 -0.8176 -0.4073  0.0250
 5222SOL    HW217108   4.970   6.323  11.073 -0.1006 -0.6264 -2.5850
 5223SOL     OW17109   4.023   0.361   8.885 -0.0356 -0.0654  0.7694
 5223SOL    HW117110   3.988   0.395   8.967  0.3622  2.9395 -0.2095
 5223SOL    HW217111   4.080   0.430   8.852  2.5682 -2.5772 -0.4078
 5224SOL     OW17112   3.482   4.068   0.487 -0.0989 -0.5813  0.1846
 5224SOL    HW117113   3.493   4.153   0.531  0.5227 -0.4237 -0.2594
 5224SOL    HW217114   3.518   4.004   0.549  1.8084 -0.2490 -0.5115
 5225SOL     OW17115   5.647   6.971   9.850 -0.2807 -0.0731 -0.1722
 5225SOL    HW117116   5.595   7.003   9.924 -1.1788 -0.1589 -0.7582
 5225SOL    HW217117   5.656   7.047   9.793  1.9364  0.5010  0.8305
 5226SOL     OW17118   4.125   7.830  11.608 -0.0410 -0.7889  0.0844
 5226SOL    HW117119   4.211   7.790  11.597  0.8437  0.5369  1.7312
 5226SOL    HW217120   4.071   7.761  11.646  0.2496 -1.6638 -1.0650
 5227SOL     OW17121   5.081   7.452   7.642  1.2899 -0.3456  0.1874
 5227SOL    HW117122   5.002   7.506   7.643  1.6323  0.2587  3.3136
 5227SOL    HW217123   5.153   7.516   7.643  1.8131 -0.8957 -0.9570
 5228SOL     OW17124   5.241   7.022   3.901 -0.7100 -0.0944  0.0853
 5228SOL    HW117125   5.329   7.039   3.933 -0.3193 -1.9345  0.1222
 5228SOL    HW217126   5.253   6.987   3.813 -1.4670  0.5603 -0.2864
 5229SOL     OW17127   0.792   0.846   3.693 -0.4930  0.2019 -0.1421
 5229SOL    HW117128   0.700   0.841   3.720 -0.3216  0.6172  0.5317
 5229SOL    HW217129   0.792   0.908   3.619 -0.8245 -0.2093 -0.4950
 5230SOL     OW17130   0.600   2.726   6.749  0.6739 -0.1486 -0.1165
 5230SOL    HW117131   0.681   2.735   6.800  1.0730 -0.7901 -0.6247
 5230SOL    HW217132   0.558   2.647   6.784  0.1128  0.3453  0.3446
 5231SOL     OW17133   0.397   1.178   2.837  0.1085 -0.6063  0.0029
 5231SOL    HW117134   0.343   1.113   2.884  0.5735 -0.9898  0.0089
 5231SOL    HW217135   0.469   1.198   2.897  0.0863 -0.2423 -0.0882
 5232SOL     OW17136   6.504   5.043   4.773  0.4205 -0.1785 -0.0274
 5232SOL    HW117137   6.446   5.117   4.787 -0.3239 -0.6637 -0.4702
 5232SOL    HW217138   6.450   4.966   4.790  0.5754 -0.6754 -1.6160
 5233SOL     OW17139   1.351   7.242   9.130 -0.1616 -0.6892  0.0008
 5233SOL    HW117140   1.263   7.215   9.155  0.1365 -2.3762 -0.6228
 5233SOL    HW217141   1.386   7.167   9.082  0.7029  0.9291 -2.0381
 5234SOL     OW17142   3.728   7.516   4.581  0.3525  0.3844 -0.4048
 5234SOL    HW117143   3.702   7.557   4.664 -0.3061  1.4540 -1.1175
 5234SOL    HW217144   3.807   7.565   4.554  0.4677  0.1512 -0.4901
 5235SOL     OW17145   6.913   4.206  11.882 -0.0094  0.2186  0.2739
 5235SOL    HW117146   6.837   4.200  11.940 -1.4650  0.7394 -1.4812
 5235SOL    HW217147   6.931   4.116  11.857 -3.2984  0.2325 -3.1260
 5236SOL     OW17148   3.152   7.900  10.488 -0.0009  0.7893  0.2010
 5236SOL    HW117149   3.093   7.916  10.414 -0.0781  1.4586  0.4006
 5236SOL    HW217150   3.150   7.805  10.500 -1.0752  0.8014  0.2319
 5237SOL     OW17151   1.248   1.812   0.870  0.3331  0.6607 -0.1198
 5237SOL    HW117152   1.293   1.766   0.800 -2.3268 -0.5486 -1.1858
 5237SOL    HW217153   1.228   1.744   0.935  1.5020  1.4953  1.1645
 5238SOL     OW17154   6.276   1.396  10.164  0.3562  0.2726  0.2416
 5238SOL    HW117155   6.277   1.399  10.068  0.1038 -0.3453  0.2189
 5238SOL    HW217156   6.356   1.348  10.187  0.3901  0.3767  0.3402
 5239SOL     OW17157   3.298   2.988   8.770  0.2431  0.6526  0.3773
 5239SOL    HW117158   3.394   2.990   8.770  0.2548  0.7156 -0.6370
 5239SOL    HW217159   3.273   3.045   8.842  0.9716  0.5164  0.7445
 5240SOL     OW17160   0.030   1.854   1.411  0.0361  0.1886 -0.0419
 5240SOL    HW117161  -0.046   1.895   1.368 -0.4198 -0.4068  0.1731
 5240SOL    HW217162   0.105   1.884   1.360 -0.4133  0.1966 -0.7231
 5241SOL     OW17163   3.936   4.401   1.250  0.0914  0.3287 -0.7955
 5241SOL    HW117164   3.916   4.419   1.342  0.1981  0.0610 -0.7210
 5241SOL    HW217165   4.012   4.456   1.232  0.4722 -0.1128 -0.5410
 5242SOL     OW17166   7.463   4.940  10.335  0.0353 -0.6854  0.1174
 5242SOL    HW117167   7.500   4.991  10.407  0.1254  0.0808 -0.4593
 5242SOL    HW217168   7.391   4.994  10.302 -0.4104 -1.3198  0.0398
 5243SOL     OW17169   2.761   2.188   2.171  0.1436  0.2260  0.0415
 5243SOL    HW117170   2.719   2.256   2.118  2.1144  0.1182 -1.7694
 5243SOL    HW217171   2.781   2.232   2.254 -0.0401  1.4132 -0.5210
 5244SOL     OW17172   3.713   4.565   9.531  0.2525  0.0237 -0.0949
 5244SOL    HW117173   3.636   4.621   9.526 -0.1923 -0.6231 -0.6609
 5244SOL    HW217174   3.695   4.494   9.470  0.0476 -1.6665  1.8127
 5245SOL     OW17175   4.300   2.832   5.125  0.2186  0.2804  0.2967
 5245SOL    HW117176   4.213   2.872   5.120 -0.4492 -0.9555  1.4181
 5245SOL    HW217177   4.348   2.885   5.189  0.1510  0.6997  0.0037
 5246SOL     OW17178   1.039   7.575  11.495  0.0866  0.1288  0.0781
 5246SOL    HW117179   1.080   7.518  11.561  2.3922  0.0559 -1.3165
 5246SOL    HW217180   1.106   7.639  11.473 -0.2944 -0.3064 -2.7229
 5247SOL     OW17181   1.674   3.204   6.555  0.2061 -0.8056 -0.1833
 5247SOL    HW117182   1.610   3.272   6.577 -0.4736 -1.0745 -1.2165
 5247SOL    HW217183   1.752   3.227   6.604 -0.2666  0.2817  0.0881
 5248SOL     OW17184   0.324   3.284   0.269  0.0761  0.0290 -0.6262
 5248SOL    HW117185   0.298   3.192   0.269 -0.8141  0.2278 -2.7202
 5248SOL    HW217186   0.303   3.315   0.357 -0.0734 -1.6271 -0.0436
 5249SOL     OW17187   1.981   3.700   4.014 -0.2664  0.1317  0.0403
 5249SOL    HW117188   2.070   3.690   3.982  0.0731  0.4865  0.8257
 5249SOL    HW217189   1.974   3.794   4.034 -0.3021 -0.1306  1.3779
 5250SOL     OW17190   2.966   6.906   1.401 -0.0455  0.3486 -0.2860
 5250SOL    HW117191   2.967   6.949   1.316  1.4558  0.1356 -0.4060
 5250SOL    HW217192   3.056   6.875   1.413 -0.3272  0.0307  1.2008
 5251SOL     OW17193   7.725   7.080   6.595  0.0799 -0.0006 -0.4554
 5251SOL    HW117194   7.772   7.066   6.513  0.3998  0.6531 -0.3884
 5251SOL    HW217195   7.711   7.174   6.599  1.3668  0.1818  0.9393
 5252SOL     OW17196   5.846   0.953   0.429 -0.2520  0.4985 -0.0496
 5252SOL    HW117197   5.898   1.014   0.482  0.2396 -1.9416  2.5669
 5252SOL    HW217198   5.909   0.886   0.401 -1.0578  0.2758 -1.4136
 5253SOL     OW17199   2.984   0.416   7.941 -0.3843  0.1882  0.0427
 5253SOL    HW117200   2.975   0.341   8.000 -0.4172  0.7812  0.8117
 5253SOL    HW217201   3.078   0.424   7.928 -0.4454 -1.5210 -2.1058
 5254SOL     OW17202   5.940   6.001   6.670  0.2797 -0.3500  0.3938
 5254SOL    HW117203   5.930   5.916   6.627  1.3587  0.0060 -0.6157
 5254SOL    HW217204   5.974   5.981   6.757 -0.9892 -1.0241  0.7660
 5255SOL     OW17205   6.738   2.422   3.289  0.2838  0.6133  0.0002
 5255SOL    HW117206   6.787   2.447   3.367 -0.5722  2.0567  0.1240
 5255SOL    HW217207   6.715   2.330   3.303 -1.6478  1.3442  2.4888
 5256SOL     OW17208   5.094   7.781   0.750  0.2712 -0.2487  0.8858
 5256SOL    HW117209   5.160   7.714   0.765  1.0976  0.4816  0.5930
 5256SOL    HW217210   5.115   7.817   0.664 -2.6200 -2.3831 -0.9255
 5257SOL     OW17211   1.913   2.456   0.946 -0.2214  0.1473  0.0183
 5257SOL    HW117212   2.000   2.443   0.908 -0.3580 -1.6524  0.2356
 5257SOL    HW217213   1.855   2.464   0.871 -0.4010 -2.7723 -0.2491
 5258SOL     OW17214   0.520   2.242   7.865 -0.6613  0.5015 -0.2556
 5258SOL    HW117215   0.437   2.261   7.821 -0.6842 -1.5323 -1.2122
 5258SOL    HW217216   0.541   2.153   7.838  2.0635  1.0972 -0.4135
 5259SOL     OW17217   6.806   5.953  10.200  0.7980  0.5518  0.3444
 5259SOL    HW117218   6.752   5.900  10.260  0.2565  0.1298 -0.4977
 5259SOL    HW217219   6.778   6.043  10.217 -0.3072  0.3314 -0.1759
 5260SOL     OW17220   0.652   0.885  10.132 -0.3036  0.5970 -0.3305
 5260SOL    HW117221   0.739   0.851  10.155 -0.3977  1.0928  0.7882
 5260SOL    HW217222   0.598   0.806  10.120  0.6655  0.1964 -2.7438
 5261SOL     OW17223   3.475   1.450   9.628 -0.1754  0.3886 -0.6006
 5261SOL    HW117224   3.485   1.514   9.557  1.0735  0.1952 -0.6291
 5261SOL    HW217225   3.468   1.366   9.583  1.8688  0.1197 -0.5197
 5262SOL     OW17226   2.766   2.558   1.896 -0.6138 -0.2622 -0.6050
 5262SOL    HW117227   2.724   2.530   1.978 -1.8740  1.9270 -0.4178
 5262SOL    HW217228   2.693   2.573   1.836  0.0655  1.0053 -1.1543
 5263SOL     OW17229   4.425   1.203   8.704 -0.0733  0.3266 -0.1939
 5263SOL    HW117230   4.354   1.248   8.751  0.5429  1.8562 -0.6404
 5263SOL    HW217231   4.424   1.114   8.738 -1.3474  0.6764  0.7766
 5264SOL     OW17232   4.448   7.659   2.225 -0.1108  0.3840  0.8770
 5264SOL    HW117233   4.376   7.596   2.212  0.6085 -0.6097  1.5823
 5264SOL    HW217234   4.469   7.652   2.318 -0.9386  2.7211  1.3069
 5265SOL     OW17235   0.798   3.130   8.851 -0.2836 -0.2846  0.0443
 5265SOL    HW117236   0.736   3.168   8.788  0.1517 -0.6871 -0.6370
 5265SOL    HW217237   0.818   3.202   8.911 -1.0114 -0.0066 -0.0346
 5266SOL     OW17238   1.868   6.873   8.854  0.6818  0.2366 -0.2765
 5266SOL    HW117239   1.932   6.927   8.809  0.2725 -0.0236 -1.1873
 5266SOL    HW217240   1.786   6.921   8.848  0.0410 -0.9696 -2.1435
 5267SOL     OW17241   3.800   5.811   9.635 -0.1851  0.5254  0.7947
 5267SOL    HW117242   3.792   5.815   9.539  0.6618 -1.6116  0.5708
 5267SOL    HW217243   3.728   5.755   9.663  0.1923  0.2817  1.2874
 5268SOL     OW17244   3.548   2.374   7.070 -0.3129 -0.6545  0.2908
 5268SOL    HW117245   3.539   2.409   7.158 -2.0699  0.5932 -0.3390
 5268SOL    HW217246   3.541   2.450   7.012 -1.4421 -1.6777 -1.0022
 5269SOL     OW17247   3.528   1.359   4.788 -0.2156 -0.0169 -0.2213
 5269SOL    HW117248   3.498   1.365   4.878 -2.1650  0.3399 -0.8278
 5269SOL    HW217249   3.479   1.285   4.752  1.2246 -0.7445 -0.7610
 5270SOL     OW17250   1.503   3.732  11.533 -0.4600 -0.2788 -0.4850
 5270SOL    HW117251   1.463   3.784  11.463 -1.2347 -1.9061 -1.2909
 5270SOL    HW217252   1.452   3.652  11.536  0.1620 -0.6490  1.3334
 5271SOL     OW17253   5.956   3.974   5.050 -0.4044 -0.7536  0.2001
 5271SOL    HW117254   5.980   4.063   5.074 -0.1636 -0.3491 -1.4208
 5271SOL    HW217255   6.005   3.919   5.111 -0.0761  0.2058  0.8285
 5272SOL     OW17256   7.025   5.123   1.577 -0.2252  0.1671 -0.7264
 5272SOL    HW117257   7.092   5.190   1.568 -1.2288  0.9625 -3.2063
 5272SOL    HW217258   7.073   5.041   1.583  0.9687  0.8507 -0.6401
 5273SOL     OW17259   7.417   5.217   3.641  0.0051 -0.2355 -0.1857
 5273SOL    HW117260   7.463   5.134   3.626 -3.0558 -2.0763 -0.2601
 5273SOL    HW217261   7.384   5.241   3.555 -0.8792 -0.0769  0.1938
 5274SOL     OW17262   6.964   6.895  11.064  0.0173  0.4986  0.6580
 5274SOL    HW117263   7.023   6.886  11.139 -0.7614  1.0293  1.3495
 5274SOL    HW217264   6.923   6.980  11.075 -0.5598  0.3286 -0.0516
 5275SOL     OW17265   0.928   6.501   6.593  0.4204  0.0614  0.0493
 5275SOL    HW117266   0.949   6.427   6.649  1.5016  0.7229  0.5694
 5275SOL    HW217267   0.851   6.541   6.632 -0.7128 -1.2710 -0.7391
 5276SOL     OW17268   2.717   5.951   6.600 -0.0132  0.3395  0.0433
 5276SOL    HW117269   2.644   5.956   6.661  2.9728  1.6176  3.9412
 5276SOL    HW217270   2.739   5.858   6.596 -0.4335  0.2028  0.7688
 5277SOL     OW17271   4.614   4.092  11.103  0.3371 -0.3962  0.0623
 5277SOL    HW117272   4.641   4.166  11.156 -0.5269 -1.0906  1.5343
 5277SOL    HW217273   4.563   4.037  11.162 -0.1129 -1.5401 -1.3198
 5278SOL     OW17274   4.589   5.407   0.342 -0.0539  0.5610 -0.3310
 5278SOL    HW117275   4.534   5.482   0.321  1.0653  2.1292  1.9238
 5278SOL    HW217276   4.558   5.337   0.284 -4.8739  1.0528  1.1999
 5279SOL     OW17277   0.005   2.306  10.750 -0.1306  0.1825  0.1900
 5279SOL    HW117278  -0.028   2.383  10.797 -2.5499 -0.4161 -0.4047
 5279SOL    HW217279  -0.011   2.326  10.658 -0.2655 -0.8065 -0.0064
 5280SOL     OW17280   1.612   0.312  10.639 -0.0322  0.2972 -0.6761
 5280SOL    HW117281   1.652   0.226  10.623 -1.3296 -0.2465 -1.1615
 5280SOL    HW217282   1.543   0.294  10.702  0.3900  1.2014  0.0588
 5281SOL     OW17283   3.418   3.429   7.113 -0.2909  0.0458 -0.3203
 5281SOL    HW117284   3.360   3.482   7.168  0.0281  0.2140 -0.1424
 5281SOL    HW217285   3.395   3.453   7.023 -0.3104  0.3100 -0.2449
 5282SOL     OW17286   0.590   1.107   1.583 -0.5105 -0.4591  0.2319
 5282SOL    HW117287   0.519   1.168   1.601  0.1070  0.7960 -1.3266
 5282SOL    HW217288   0.650   1.117   1.656 -0.7517  0.2957  0.3343
 5283SOL     OW17289   4.024   4.364   1.698 -0.1939  0.2179 -0.4156
 5283SOL    HW117290   4.043   4.445   1.651  0.2560 -0.1042 -0.7924
 5283SOL    HW217291   4.101   4.349   1.753 -0.1988 -0.0451 -0.4788
 5284SOL     OW17292   0.240   7.972   6.918  0.4546 -0.3127 -0.8001
 5284SOL    HW117293   0.165   8.003   6.970  0.4154  0.2057 -1.1576
 5284SOL    HW217294   0.296   7.929   6.982  0.4381  0.3756 -0.3015
 5285SOL     OW17295   7.564   4.453   5.530  0.0691  0.6371 -0.0213
 5285SOL    HW117296   7.538   4.450   5.622  1.7570 -1.1794  0.4646
 5285SOL    HW217297   7.644   4.506   5.529  0.8556 -0.5208 -0.1887
 5286SOL     OW17298   5.629   1.023   6.923  0.0890 -0.1326  0.6692
 5286SOL    HW117299   5.598   0.990   7.008  1.2392  0.4359  1.3316
 5286SOL    HW217300   5.575   1.101   6.907  0.0330 -0.1032  0.9928
 5287SOL     OW17301   0.470   6.103   6.758  0.2291 -0.2132 -0.4965
 5287SOL    HW117302   0.528   6.030   6.778  1.2985  0.3976 -1.2830
 5287SOL    HW217303   0.528   6.172   6.726 -0.7525  1.0082  0.2663
 5288SOL     OW17304   2.757   1.627   8.337  0.4232 -0.7495 -0.0494
 5288SOL    HW117305   2.689   1.626   8.271  0.0772  0.3370  0.2678
 5288SOL    HW217306   2.807   1.707   8.319  1.0457 -1.0569  0.2796
 5289SOL     OW17307   5.756   5.151  11.864  0.1888  0.2186 -0.3893
 5289SOL    HW117308   5.765   5.202  11.944 -1.3074  0.2569 -0.2299
 5289SOL    HW217309   5.663   5.128  11.859  0.3800 -0.3963 -1.7349
 5290SOL     OW17310   2.387   0.147  10.879  0.3678  0.0787  0.0494
 5290SOL    HW117311   2.391   0.241  10.861  0.5027  0.2056  0.7080
 5290SOL    HW217312   2.312   0.116  10.830  0.2073  0.5718 -0.0160
 5291SOL     OW17313   3.639   5.130   9.075 -0.2656 -0.5447  0.1566
 5291SOL    HW117314   3.598   5.044   9.068 -0.3043 -0.7109  1.9279
 5291SOL    HW217315   3.573   5.185   9.116  0.0836  0.1050 -0.1324
 5292SOL     OW17316   4.325   7.177   3.917 -0.5219 -0.1722  0.4103
 5292SOL    HW117317   4.286   7.189   3.830 -2.0596 -0.1469  1.0589
 5292SOL    HW217318   4.322   7.082   3.931 -1.3052 -0.0835  0.8704
 5293SOL     OW17319   6.434   3.954   6.443 -0.7661  0.1162 -0.3363
 5293SOL    HW117320   6.400   3.884   6.499  1.8960  0.3058  1.7201
 5293SOL    HW217321   6.426   3.920   6.354 -2.0037 -1.6480  0.3951
 5294SOL     OW17322   1.531   1.387   0.087  0.6300  0.5968 -0.0942
 5294SOL    HW117323   1.491   1.362   0.005  2.5283  2.0609 -1.5727
 5294SOL    HW217324   1.536   1.306   0.138  0.6466 -0.6291 -1.9636
 5295SOL     OW17325   2.535   1.896   8.234 -0.6078 -0.0580  0.1481
 5295SOL    HW117326   2.517   1.984   8.269  2.1048 -0.0903  1.8911
 5295SOL    HW217327   2.513   1.902   8.141 -1.1079  2.2648  0.3578
 5296SOL     OW17328   6.752   7.058   7.945  0.4374  0.5215  0.7962
 5296SOL    HW117329   6.719   7.042   7.857  1.5984  0.1114  0.4245
 5296SOL    HW217330   6.838   7.015   7.947  0.1877  0.0483  2.3049
 5297SOL     OW17331   5.203   6.809   1.873  0.3752  0.0290  0.2656
 5297SOL    HW117332   5.234   6.736   1.927  0.4430  0.1633  0.4111
 5297SOL    HW217333   5.110   6.791   1.858  0.6115 -0.5826 -0.5118
 5298SOL     OW17334   6.167   4.159   8.286  0.9374  0.6282 -0.2166
 5298SOL    HW117335   6.261   4.153   8.303  0.9882  0.3394 -0.5950
 5298SOL    HW217336   6.159   4.153   8.190  0.5805  1.2324 -0.2341
 5299SOL     OW17337   0.545   4.309   0.119  0.1679  0.2257  0.2832
 5299SOL    HW117338   0.575   4.236   0.065  0.2933  1.0815 -0.8354
 5299SOL    HW217339   0.609   4.314   0.190  0.4130 -0.4628  0.1210
 5300SOL     OW17340   6.628   3.775   1.078 -0.5105  0.8038  0.1945
 5300SOL    HW117341   6.550   3.735   1.117 -0.9750 -0.1637 -1.6321
 5300SOL    HW217342   6.677   3.809   1.153 -2.0483  0.2965  1.4900
 5301SOL     OW17343   7.871   5.473   0.226  0.0298 -0.1254 -0.4890
 5301SOL    HW117344   7.837   5.430   0.147  1.3226 -2.4176  0.1316
 5301SOL    HW217345   7.957   5.433   0.240 -0.4616 -0.3447  2.4951
 5302SOL     OW17346   0.885   4.803   3.734  0.1386  0.3376 -0.1162
 5302SOL    HW117347   0.859   4.785   3.824 -0.5664  1.3082 -0.1064
 5302SOL    HW217348   0.843   4.886   3.713  1.2515  0.7151 -0.9529
 5303SOL     OW17349   7.733   6.063   0.911  0.4305 -0.4030  0.6509
 5303SOL    HW117350   7.678   6.136   0.883  0.0995 -0.7660  0.3572
 5303SOL    HW217351   7.672   6.000   0.951  0.5544 -1.0372 -0.1431
 5304SOL     OW17352   1.452   1.309  12.271  0.4211  0.1169  0.2175
 5304SOL    HW117353   1.502   1.382  12.233  0.5138  0.0583  0.2267
 5304SOL    HW217354   1.492   1.231  12.233 -0.6789  0.1169 -1.0280
 5305SOL     OW17355   0.299   4.983  11.771 -0.5672  0.0048 -0.2885
 5305SOL    HW117356   0.212   4.944  11.757 -0.6515 -1.5984  3.4458
 5305SOL    HW217357   0.281   5.062  11.823  0.1519 -0.7304  1.1495
 5306SOL     OW17358   5.941   4.159   4.041 -0.6825  0.2105 -0.6086
 5306SOL    HW117359   6.018   4.194   3.997  0.7764  0.7924  2.1421
 5306SOL    HW217360   5.921   4.223   4.109 -0.1887 -2.3512  2.2154
 5307SOL     OW17361   3.182   7.977   6.494 -0.3686  0.4074 -0.1178
 5307SOL    HW117362   3.127   7.998   6.569  0.5730 -0.5713  0.8740
 5307SOL    HW217363   3.209   7.886   6.507  0.1898  0.3544 -1.3992
 5308SOL     OW17364   2.307   6.812   8.069  0.1049  0.8725 -0.1620
 5308SOL    HW117365   2.359   6.842   8.143 -0.7233  0.3032  0.6773
 5308SOL    HW217366   2.370   6.768   8.012  0.8026  1.5537  0.0612
 5309SOL     OW17367   1.993   0.983   1.557  0.2903  0.5945  0.3043
 5309SOL    HW117368   2.076   1.031   1.551  0.5835  0.1466  0.6963
 5309SOL    HW217369   1.931   1.047   1.591 -0.1653  1.6893 -2.3634
 5310SOL     OW17370   3.289   6.575   7.067  0.3891 -0.2172 -0.3880
 5310SOL    HW117371   3.246   6.539   7.145 -0.5757  0.5206 -0.5509
 5310SOL    HW217372   3.376   6.535   7.067 -0.1970 -1.5600  0.1035
 5311SOL     OW17373   4.647   3.350   0.970  0.1794  0.0756  0.2350
 5311SOL    HW117374   4.650   3.313   1.058  0.4711  0.7278  0.5100
 5311SOL    HW217375   4.579   3.418   0.976 -0.3198 -0.3787 -0.2444
 5312SOL     OW17376   6.828   1.178   6.462 -0.0825 -0.0555 -0.5259
 5312SOL    HW117377   6.753   1.210   6.512  0.6938 -1.1193  1.4326
 5312SOL    HW217378   6.791   1.147   6.380 -1.9710 -1.4442  0.7709
 5313SOL     OW17379   7.761   0.354   8.567 -0.2220 -0.0671  0.2068
 5313SOL    HW117380   7.766   0.448   8.586  0.5491 -0.2303  0.8590
 5313SOL    HW217381   7.837   0.336   8.512 -2.0548  0.2631 -2.6720
 5314SOL     OW17382   5.080   7.528   8.582 -0.1302 -0.4531 -0.1381
 5314SOL    HW117383   5.067   7.440   8.548 -0.1496 -0.1515 -0.9256
 5314SOL    HW217384   5.033   7.528   8.666  3.4132 -2.4981  2.0790
 5315SOL     OW17385   5.048   4.521   9.936  0.2648  0.3153  0.2121
 5315SOL    HW117386   4.978   4.460   9.913  0.3712 -0.1896  1.1668
 5315SOL    HW217387   5.008   4.608   9.926 -1.0069  0.0200  2.1577
 5316SOL     OW17388   1.806   6.129   3.799 -0.4622  0.8294  0.6208
 5316SOL    HW117389   1.724   6.126   3.850 -0.1942  1.2385  1.0861
 5316SOL    HW217390   1.777   6.135   3.708 -0.9610 -1.5706  0.5763
 5317SOL     OW17391   5.863   1.254   2.188 -0.3659 -0.0148  0.0996
 5317SOL    HW117392   5.767   1.259   2.187 -0.3447  0.7053 -1.5135
 5317SOL    HW217393   5.882   1.163   2.211 -1.4341 -0.2350  0.1889
 5318SOL     OW17394   1.301   5.143  11.654  0.0414 -0.1405 -0.1831
 5318SOL    HW117395   1.213   5.135  11.617 -0.4912  0.2959  0.9423
 5318SOL    HW217396   1.300   5.084  11.730  1.3735 -1.6612 -1.2740
 5319SOL     OW17397   2.127   6.076   5.114  0.1347 -0.1397 -0.4569
 5319SOL    HW117398   2.122   5.995   5.166  0.3895  0.6740  0.8752
 5319SOL    HW217399   2.069   6.137   5.160 -0.3116  0.3456 -1.6430
 5320SOL     OW17400   2.869   7.463  12.135  0.0512  0.5603 -0.0261
 5320SOL    HW117401   2.893   7.371  12.129 -0.3563  0.4386  0.2312
 5320SOL    HW217402   2.935   7.501  12.193  0.3678  0.4878 -0.3302
 5321SOL     OW17403   1.935   7.500   7.973 -0.0401  0.2943 -0.5455
 5321SOL    HW117404   1.930   7.404   7.971 -0.4723  0.3191 -0.7899
 5321SOL    HW217405   1.929   7.526   7.881 -1.9452  0.6438 -0.3592
 5322SOL     OW17406   4.638   3.671   0.280 -0.2659  0.3269  0.3509
 5322SOL    HW117407   4.617   3.755   0.322 -2.6935  0.3627 -0.7382
 5322SOL    HW217408   4.558   3.619   0.290  0.7374 -1.3733 -0.1365
 5323SOL     OW17409   6.401   1.825   6.208 -0.3539  0.2480  0.3246
 5323SOL    HW117410   6.307   1.808   6.218 -0.0093 -0.8965  1.9851
 5323SOL    HW217411   6.444   1.753   6.254  1.3189  1.5739  0.9439
 5324SOL     OW17412   2.201   3.325   1.571 -0.7201  0.1566 -0.1547
 5324SOL    HW117413   2.124   3.361   1.615  0.5675  0.8542  1.6252
 5324SOL    HW217414   2.197   3.231   1.588 -1.2289  0.1774 -0.1529
 5325SOL     OW17415   6.688   4.300   6.655 -0.0308  0.1067  0.2126
 5325SOL    HW117416   6.613   4.303   6.596 -0.1260 -1.0587  0.2443
 5325SOL    HW217417   6.745   4.371   6.626 -0.5964  0.2520 -0.5663
 5326SOL     OW17418   4.681   6.649   0.228  0.2422  0.1229  0.0363
 5326SOL    HW117419   4.759   6.597   0.210  0.2962  0.3798 -0.5134
 5326SOL    HW217420   4.709   6.740   0.213 -0.6785  0.0939 -2.2432
 5327SOL     OW17421   2.383   4.964  11.123 -0.2194  0.0898 -0.6302
 5327SOL    HW117422   2.296   4.949  11.086 -0.4574  1.9934 -0.9502
 5327SOL    HW217423   2.369   5.032  11.189  0.5043 -1.9238  1.7534
 5328SOL     OW17424   3.459   6.356   6.762 -0.1536 -0.0051 -0.6431
 5328SOL    HW117425   3.477   6.291   6.693  0.0326 -1.2514  0.5469
 5328SOL    HW217426   3.461   6.306   6.843 -0.6305  1.3981  0.2634
 5329SOL     OW17427   2.623   2.672   4.405  0.7818 -0.0563  0.0731
 5329SOL    HW117428   2.618   2.725   4.485 -2.7493 -1.8170  1.2268
 5329SOL    HW217429   2.563   2.715   4.344  0.6003 -0.7631 -0.2552
 5330SOL     OW17430   2.305   7.166   8.111 -0.6611  0.1562  0.2644
 5330SOL    HW117431   2.316   7.195   8.020  0.0632  2.4252  0.9887
 5330SOL    HW217432   2.386   7.119   8.131 -1.4295 -1.6400 -0.6454
 5331SOL     OW17433   0.229   5.659  11.543  0.2371 -0.0551 -0.0859
 5331SOL    HW117434   0.316   5.672  11.580  0.5623 -0.2954 -0.7391
 5331SOL    HW217435   0.242   5.593  11.475 -0.8011 -1.5045  1.0600
 5332SOL     OW17436   4.177   2.690   2.621 -0.8099 -0.2084  0.4197
 5332SOL    HW117437   4.236   2.682   2.696 -0.2126 -1.2197 -0.1252
 5332SOL    HW217438   4.233   2.677   2.544 -1.2252  1.8505 -0.2782
 5333SOL     OW17439   4.134   3.551   0.911 -0.4408  0.5548  0.1535
 5333SOL    HW117440   4.178   3.626   0.871 -0.7425  1.0021  0.6397
 5333SOL    HW217441   4.203   3.504   0.957 -0.4508  1.2449  0.9015
 5334SOL     OW17442   1.698   6.440   6.616 -0.4902  0.5161 -0.1235
 5334SOL    HW117443   1.617   6.488   6.633  0.8031  1.9142  3.0477
 5334SOL    HW217444   1.765   6.508   6.606  0.5253 -0.6017 -1.2630
 5335SOL     OW17445   3.797   2.419   3.706 -0.3253  0.0598 -0.0975
 5335SOL    HW117446   3.848   2.442   3.628 -1.0002 -0.2373 -0.6428
 5335SOL    HW217447   3.706   2.432   3.678 -0.6310 -1.2713  0.2410
 5336SOL     OW17448   0.710   3.642  10.888  0.3721 -0.5432 -0.8945
 5336SOL    HW117449   0.687   3.623  10.979 -1.5709 -2.7703 -1.7404
 5336SOL    HW217450   0.636   3.693  10.855  1.3712  0.8219 -1.1153
 5337SOL     OW17451   1.879   5.025   7.884 -0.7584 -0.1720  0.2753
 5337SOL    HW117452   1.933   5.023   7.805  0.4106 -0.8220  1.0711
 5337SOL    HW217453   1.793   5.056   7.853  0.2981  1.8463 -0.8751
 5338SOL     OW17454   6.794   1.186   6.885 -0.2800  0.3011  0.2069
 5338SOL    HW117455   6.705   1.165   6.857 -0.5285 -0.3688  1.4290
 5338SOL    HW217456   6.834   1.101   6.902  0.5800  0.6041 -0.2782
 5339SOL     OW17457   4.930   4.930   4.814 -0.0015 -0.6563  0.0707
 5339SOL    HW117458   4.973   4.872   4.877  1.8031  0.9309  0.3887
 5339SOL    HW217459   4.996   4.945   4.746 -0.1552  1.5409  0.3491
 5340SOL     OW17460   0.586   6.644   1.122 -0.3732  0.0785  0.7803
 5340SOL    HW117461   0.516   6.673   1.065 -0.2452  0.0296  0.5952
 5340SOL    HW217462   0.549   6.570   1.170 -0.0929 -0.6941 -0.1554
 5341SOL     OW17463   7.113   3.685   4.428 -0.2808  0.4537  0.3294
 5341SOL    HW117464   7.179   3.737   4.382  0.3871  0.8611  1.6995
 5341SOL    HW217465   7.091   3.615   4.367  1.6731  0.1145 -0.0592
 5342SOL     OW17466   7.500   7.870   5.017  0.1498  0.2096  0.2449
 5342SOL    HW117467   7.451   7.932   4.964 -0.8953 -0.4235  0.4369
 5342SOL    HW217468   7.455   7.787   5.005  0.9785 -0.3283  0.7084
 5343SOL     OW17469   4.029   5.141  11.823  0.3544 -0.4669  0.2923
 5343SOL    HW117470   4.016   5.049  11.845  1.1280 -0.6928 -0.1641
 5343SOL    HW217471   4.016   5.146  11.728 -1.0834  0.1595  0.4957
 5344SOL     OW17472   1.707   4.919   0.947 -0.4842 -0.6312  0.0037
 5344SOL    HW117473   1.679   4.993   0.894  0.9593 -0.0246  0.0466
 5344SOL    HW217474   1.781   4.882   0.899  0.1712 -0.7230  1.0559
 5345SOL     OW17475   4.069   2.814   4.257 -0.3099 -0.0708  0.3681
 5345SOL    HW117476   4.041   2.904   4.274  0.6719  0.1859  0.6486
 5345SOL    HW217477   4.011   2.761   4.312 -1.6444  0.2869 -0.6225
 5346SOL     OW17478   3.827   1.125   7.752 -0.7422  0.2369  0.1412
 5346SOL    HW117479   3.916   1.156   7.732 -1.0168  1.3168  0.5774
 5346SOL    HW217480   3.841   1.037   7.788  0.1005  0.1479 -0.3601
 5347SOL     OW17481   5.260   3.903   0.353  0.0079 -0.1958  0.2001
 5347SOL    HW117482   5.265   3.816   0.394  1.5347 -0.2330  0.0019
 5347SOL    HW217483   5.184   3.898   0.296  0.3423 -1.5916 -0.1707
 5348SOL     OW17484   7.643   5.206   6.577  0.0004  0.3039 -0.2024
 5348SOL    HW117485   7.613   5.265   6.507 -0.2490  0.6731  0.2134
 5348SOL    HW217486   7.653   5.121   6.533  3.4322  1.2665 -1.5730
 5349SOL     OW17487   1.232   4.702  12.067 -0.4383  0.0599 -0.3867
 5349SOL    HW117488   1.175   4.643  12.017 -1.6661  0.4135  0.5468
 5349SOL    HW217489   1.193   4.705  12.154  0.1828  1.4398 -0.1281
 5350SOL     OW17490   1.801   3.560   9.177  0.2855 -0.0111 -0.5676
 5350SOL    HW117491   1.746   3.631   9.209 -0.0054 -1.1609  1.7034
 5350SOL    HW217492   1.867   3.549   9.246  3.0078  0.8540 -2.8607
 5351SOL     OW17493   0.133   3.697   1.140 -0.0933  0.0360 -0.2435
 5351SOL    HW117494   0.126   3.694   1.235  0.9855  2.2740 -0.0275
 5351SOL    HW217495   0.089   3.779   1.115  0.7079  0.1020 -1.5299
 5352SOL     OW17496   6.485   6.553   8.487  0.0280 -0.0362  0.4538
 5352SOL    HW117497   6.393   6.532   8.501 -0.4141  1.9129  0.8291
 5352SOL    HW217498   6.491   6.573   8.393  0.6270 -2.4625 -0.0822
 5353SOL     OW17499   1.294   6.392   8.312  0.3518 -0.3805  0.5600
 5353SOL    HW117500   1.257   6.415   8.398  0.0371  0.1793  0.2811
 5353SOL    HW217501   1.262   6.461   8.254  0.6885 -0.6780  0.0239
 5354SOL     OW17502   7.885   6.838   4.732  0.3069  0.6038 -0.4550
 5354SOL    HW117503   7.873   6.933   4.729  0.5532  0.6182 -1.8342
 5354SOL    HW217504   7.812   6.803   4.680 -1.0043 -0.1323  1.7285
 5355SOL     OW17505   2.557   7.482   3.745  0.2843 -0.4569  0.1811
 5355SOL    HW117506   2.464   7.505   3.733  0.6637 -0.4275 -3.9711
 5355SOL    HW217507   2.559   7.387   3.737  0.6361 -0.4480  0.1765
 5356SOL     OW17508   5.505   4.659   7.554 -0.5744  0.3366  0.1791
 5356SOL    HW117509   5.468   4.686   7.470  0.9050  1.9983  0.0034
 5356SOL    HW217510   5.520   4.741   7.601  0.0292 -0.4746  1.4628
 5357SOL     OW17511   7.550   4.053   8.970 -0.2819  0.6710 -0.2215
 5357SOL    HW117512   7.608   4.125   8.997 -1.0809  1.6619 -1.0421
 5357SOL    HW217513   7.588   4.022   8.888 -0.6205  0.9706 -0.4916
 5358SOL     OW17514   6.293   6.474  12.052  0.3939 -0.4032 -0.1165
 5358SOL    HW117515   6.227   6.540  12.032 -1.1524 -2.5939 -2.7495
 5358SOL    HW217516   6.250   6.414  12.113  1.4596  0.3761  1.4768
 5359SOL     OW17517   2.914   0.704   4.248 -0.1517 -0.0184 -0.1045
 5359SOL    HW117518   3.001   0.727   4.214  0.2325 -0.4945  0.5159
 5359SOL    HW217519   2.933   0.644   4.320 -1.0391 -1.1371 -0.7565
 5360SOL     OW17520   5.571   5.188  12.112 -0.1636 -0.1793  0.1221
 5360SOL    HW117521   5.486   5.186  12.156  0.1049  1.0409  0.7437
 5360SOL    HW217522   5.613   5.107  12.139 -0.9721 -0.6041  0.1342
 5361SOL     OW17523   7.642   6.774   6.915  0.0990  0.2694  0.0781
 5361SOL    HW117524   7.680   6.756   7.001  0.6275  1.4306  0.1058
 5361SOL    HW217525   7.678   6.706   6.858  0.2724 -0.1109  0.6352
 5362SOL     OW17526   7.350   4.505   1.763  0.6156  0.2351 -0.3337
 5362SOL    HW117527   7.269   4.476   1.806  1.0799  0.5612  0.8187
 5362SOL    HW217528   7.376   4.583   1.812  2.0422 -0.3244 -0.1473
 5363SOL     OW17529   3.080   5.559   0.110 -0.0359  0.3312 -0.6354
 5363SOL    HW117530   3.017   5.506   0.062  1.4759 -2.0720 -0.1748
 5363SOL    HW217531   3.120   5.616   0.044  0.4950 -1.3874 -1.8746
 5364SOL     OW17532   2.084   6.823  10.160 -0.2876  0.2273  0.1928
 5364SOL    HW117533   2.055   6.914  10.164 -0.9007  0.2083 -2.1098
 5364SOL    HW217534   2.083   6.802  10.066  1.6542 -1.5834  0.5028
 5365SOL     OW17535   0.655   0.628   1.632  0.2881 -0.5405 -0.4251
 5365SOL    HW117536   0.741   0.612   1.594  0.6461  1.3570 -0.5343
 5365SOL    HW217537   0.655   0.579   1.715  2.3109  1.0474  0.5886
 5366SOL     OW17538   7.545   5.676  12.406 -0.2605 -0.6171  0.7202
 5366SOL    HW117539   7.575   5.703  12.493 -0.0478  0.7336  0.2543
 5366SOL    HW217540   7.463   5.725  12.393  0.7186  0.7628 -0.6114
 5367SOL     OW17541   3.203   2.579   2.857 -1.0000  0.2317 -0.3979
 5367SOL    HW117542   3.236   2.555   2.943 -0.3293  0.3616 -0.6081
 5367SOL    HW217543   3.204   2.498   2.807  1.3432  0.6343 -1.1326
 5368SOL     OW17544   4.800   4.381   9.872 -0.1526  0.4445  0.6870
 5368SOL    HW117545   4.770   4.309   9.816  0.2596 -0.3670  1.4884
 5368SOL    HW217546   4.764   4.361   9.958  0.4154  0.9178  1.0391
 5369SOL     OW17547   1.098   1.867   9.695  0.4567 -0.5814 -0.0927
 5369SOL    HW117548   1.110   1.955   9.733  0.5370 -0.8443  0.5006
 5369SOL    HW217549   1.011   1.870   9.656  1.0869  0.2737 -1.5021
 5370SOL     OW17550   7.140   5.151   5.826 -0.2648  0.3876 -0.1359
 5370SOL    HW117551   7.063   5.167   5.881 -0.8779  0.5214 -1.0159
 5370SOL    HW217552   7.191   5.085   5.874 -0.2931  1.1980  1.0495
 5371SOL     OW17553   2.961   1.129   9.477  0.5801  0.1633 -0.2168
 5371SOL    HW117554   2.980   1.039   9.453  2.7327  0.5963 -0.3907
 5371SOL    HW217555   2.875   1.147   9.440  0.9647 -1.2172 -1.8981
 5372SOL     OW17556   2.054   5.298   4.006  0.1587 -0.1731 -0.0784
 5372SOL    HW117557   2.004   5.248   3.942 -0.9319  1.9655 -1.0228
 5372SOL    HW217558   1.991   5.319   4.075  0.4484  0.3607  0.0304
 5373SOL     OW17559   4.403   7.615   0.379 -0.2417  0.2402  0.3262
 5373SOL    HW117560   4.377   7.616   0.287 -0.7826 -0.6631  0.4580
 5373SOL    HW217561   4.321   7.597   0.427  0.5770 -2.8462  0.7496
 5374SOL     OW17562   1.411   7.864   0.118  0.0970  0.1651  0.2664
 5374SOL    HW117563   1.443   7.896   0.202  0.5714  0.2509  0.0568
 5374SOL    HW217564   1.469   7.905   0.053  1.0308 -1.4929  0.0131
 5375SOL     OW17565   0.208   6.302   9.033 -0.3971 -0.2551  0.1656
 5375SOL    HW117566   0.237   6.318   9.123 -0.1747 -0.5347  0.1451
 5375SOL    HW217567   0.116   6.275   9.042  0.2741 -2.6977  0.5560
 5376SOL     OW17568   2.713   1.041  11.065 -0.1897 -0.3725  0.2324
 5376SOL    HW117569   2.655   1.104  11.023 -1.6271 -0.5595  1.8451
 5376SOL    HW217570   2.759   0.999  10.992 -1.0743  0.7336 -1.0140
 5377SOL     OW17571   1.352   1.477   6.055  0.0417  0.3416  0.5879
 5377SOL    HW117572   1.424   1.540   6.056 -0.3418  0.8198 -0.4958
 5377SOL    HW217573   1.291   1.510   6.121  0.3478  0.4801  0.8079
 5378SOL     OW17574   3.640   7.257   9.232  0.9693 -0.0684  0.3761
 5378SOL    HW117575   3.608   7.320   9.167  0.8201  0.1351  0.6458
 5378SOL    HW217576   3.719   7.220   9.192 -0.3019 -1.5576 -0.8864
 5379SOL     OW17577   7.745   6.618   1.879 -0.2037  0.1670 -0.0889
 5379SOL    HW117578   7.764   6.677   1.953 -0.2363  0.6446 -0.4565
 5379SOL    HW217579   7.709   6.676   1.811 -0.8849 -0.3839 -0.2092
 5380SOL     OW17580   1.869   1.809  11.780  0.1012 -0.3848  0.1941
 5380SOL    HW117581   1.898   1.899  11.790 -0.1750 -0.0722 -1.4743
 5380SOL    HW217582   1.879   1.791  11.686  0.2226 -2.1173  0.4947
 5381SOL     OW17583   0.663   1.897  12.304  0.2375 -0.3558  0.2321
 5381SOL    HW117584   0.662   1.813  12.259  2.6136  0.4994 -1.6315
 5381SOL    HW217585   0.604   1.952  12.253 -1.7527 -0.9509  1.7727
 5382SOL     OW17586   0.023   2.929  11.498  0.5353  0.2888 -0.1148
 5382SOL    HW117587  -0.059   2.972  11.521 -0.8264 -1.5096 -1.2872
 5382SOL    HW217588   0.090   2.997  11.507 -1.1304  1.9374  0.4319
 5383SOL     OW17589   7.551   1.599  11.185  0.7069 -0.2909  0.6941
 5383SOL    HW117590   7.640   1.564  11.175  0.6741 -0.0146 -0.8617
 5383SOL    HW217591   7.497   1.522  11.203  1.1203 -0.5955  0.6563
 5384SOL     OW17592   5.660   4.254   4.849 -0.2097 -0.3475  0.6460
 5384SOL    HW117593   5.676   4.284   4.939 -0.2315 -1.7921  1.1572
 5384SOL    HW217594   5.651   4.159   4.857 -2.9996 -0.2677 -0.4505
 5385SOL     OW17595   5.973   6.201   9.769  0.0913  0.0976 -0.8519
 5385SOL    HW117596   6.001   6.121   9.725 -0.4638 -0.1435 -0.7721
 5385SOL    HW217597   5.947   6.173   9.857  0.6750  0.4931 -0.5436
 5386SOL     OW17598   1.969   3.814   8.863 -0.5109 -0.2690  0.0823
 5386SOL    HW117599   1.907   3.761   8.814  1.7528 -1.7770 -1.3554
 5386SOL    HW217600   2.047   3.818   8.806  0.3834  2.3401  1.3418
 5387SOL     OW17601   5.654   1.930   5.199  0.1372 -0.4079  0.3667
 5387SOL    HW117602   5.740   1.955   5.231  0.6895 -2.5229  0.7119
 5387SOL    HW217603   5.595   1.997   5.234  1.4574  0.3689  1.1994
 5388SOL     OW17604   4.640   6.866   9.664  0.6834 -0.2724 -0.0269
 5388SOL    HW117605   4.658   6.864   9.758 -0.3864  1.1741  0.2522
 5388SOL    HW217606   4.574   6.935   9.654  0.8244 -0.3527 -1.8520
 5389SOL     OW17607   6.995   5.441   9.806  0.5217  0.1350  0.0764
 5389SOL    HW117608   7.020   5.436   9.898 -0.2337  0.6067  0.3107
 5389SOL    HW217609   6.960   5.529   9.795  0.9713  0.2179 -0.7595
 5390SOL     OW17610   3.564   3.470   1.188  0.2670 -0.0881 -0.5934
 5390SOL    HW117611   3.580   3.562   1.210  2.0509 -0.5982  0.5251
 5390SOL    HW217612   3.604   3.458   1.102  1.2485 -0.1024 -0.1483
 5391SOL     OW17613   2.359   7.186  11.719 -0.0308  0.1444 -0.5053
 5391SOL    HW117614   2.290   7.252  11.718 -0.4954 -0.3202 -1.5191
 5391SOL    HW217615   2.402   7.195  11.634  0.0300 -0.7062 -0.5751
 5392SOL     OW17616   3.339   1.579   5.049  0.0020 -0.1801 -0.9302
 5392SOL    HW117617   3.423   1.615   5.077 -0.1243 -0.3689 -0.2982
 5392SOL    HW217618   3.314   1.518   5.119 -0.5967 -0.2242 -1.1759
 5393SOL     OW17619   6.170   5.170   1.505  0.4118  0.0211 -0.5613
 5393SOL    HW117620   6.133   5.240   1.559  0.7554 -0.0830 -0.1888
 5393SOL    HW217621   6.243   5.136   1.556 -0.1633 -1.0659 -0.4205
 5394SOL     OW17622   0.962   7.648   8.172 -0.0887 -0.1830  0.6681
 5394SOL    HW117623   0.870   7.623   8.162 -0.0309 -0.2311  0.2174
 5394SOL    HW217624   1.011   7.566   8.160  0.0411 -0.0575  0.2906
 5395SOL     OW17625   4.789   2.938   0.596  0.6173 -0.0292  0.7021
 5395SOL    HW117626   4.735   2.919   0.674  0.4682 -0.8140  0.4233
 5395SOL    HW217627   4.798   2.853   0.553  3.3485 -0.2544  1.5166
 5396SOL     OW17628   2.943   1.890   4.997 -0.1088 -0.0044  0.1225
 5396SOL    HW117629   2.881   1.826   5.030 -0.4936 -0.1431 -0.8353
 5396SOL    HW217630   2.899   1.974   5.009  0.1254  0.0322  0.7720
 5397SOL     OW17631   3.952   7.299  11.722  0.2462  0.0340  0.2802
 5397SOL    HW117632   3.912   7.353  11.791 -1.4722  0.3550 -0.9147
 5397SOL    HW217633   4.046   7.309  11.736 -0.0378  2.0085  1.1400
 5398SOL     OW17634   1.504   7.705  10.686 -0.4577 -0.3049 -0.4722
 5398SOL    HW117635   1.452   7.716  10.766 -1.4861 -0.3524 -1.1117
 5398SOL    HW217636   1.586   7.666  10.716 -0.6287  0.1300  0.6190
 5399SOL     OW17637   0.473   0.233  10.588  0.1188 -0.2096 -0.0809
 5399SOL    HW117638   0.486   0.139  10.576  0.4113  0.0153 -1.9364
 5399SOL    HW217639   0.517   0.253  10.670  1.3455 -1.4650 -0.3913
 5400SOL     OW17640   4.274   4.711   0.262  0.0214  0.0692 -0.1143
 5400SOL    HW117641   4.215   4.652   0.216 -1.5858 -0.4145  2.3386
 5400SOL    HW217642   4.226   4.794   0.266  0.3075  0.2214  0.2831
 5401SOL     OW17643   4.117   2.162   9.060 -0.2549  0.0334  0.2036
 5401SOL    HW117644   4.092   2.235   9.003 -1.1662  0.2457  0.8616
 5401SOL    HW217645   4.035   2.130   9.096  0.1188 -1.4192 -0.1810
 5402SOL     OW17646   7.830   7.044  12.092  0.1185  0.3097 -0.0526
 5402SOL    HW117647   7.911   7.061  12.043  0.4060 -1.9560 -0.4687
 5402SOL    HW217648   7.762   7.091  12.043  1.0230  1.4123 -0.2722
 5403SOL     OW17649   5.745   6.436   7.658  0.0143  0.1267 -0.6801
 5403SOL    HW117650   5.723   6.505   7.721  0.6052  0.5014 -0.8700
 5403SOL    HW217651   5.818   6.389   7.699 -0.0268 -0.0380 -0.7952
 5404SOL     OW17652   3.527   3.674  10.948 -0.2968 -0.8811 -0.3945
 5404SOL    HW117653   3.436   3.685  10.974  0.8666  1.0072  3.7201
 5404SOL    HW217654   3.544   3.745  10.886 -1.1023  0.1115  0.5000
 5405SOL     OW17655   7.955   1.977   2.336 -0.3360  0.2862  0.6779
 5405SOL    HW117656   7.874   2.025   2.326  0.8366  2.0282 -1.1550
 5405SOL    HW217657   7.935   1.889   2.305 -1.0303  1.2789 -1.9480
 5406SOL     OW17658   4.876   7.256   6.685 -0.0407 -0.1083  0.0876
 5406SOL    HW117659   4.833   7.214   6.610  2.4467  0.7311 -1.9890
 5406SOL    HW217660   4.896   7.184   6.744 -0.9078 -1.0034 -0.6631
 5407SOL     OW17661   2.022   3.264   6.905  0.9013 -0.2519  0.3349
 5407SOL    HW117662   2.002   3.348   6.945  0.6509  0.2479 -0.7849
 5407SOL    HW217663   2.005   3.199   6.974 -1.3028  0.4095  0.5032
 5408SOL     OW17664   7.575   4.139   2.980 -0.7645  0.0027  0.1257
 5408SOL    HW117665   7.505   4.126   3.045  0.2869 -1.8631  0.9442
 5408SOL    HW217666   7.602   4.051   2.955  1.4457  0.6610 -0.0226
 5409SOL     OW17667   2.496   5.161   1.654  0.1774  0.1801 -0.2096
 5409SOL    HW117668   2.447   5.227   1.704  1.3121 -0.1934  1.4918
 5409SOL    HW217669   2.435   5.133   1.586 -0.5352  2.5858 -0.6854
 5410SOL     OW17670   4.099   4.888   3.419 -0.1506 -0.4028 -0.5574
 5410SOL    HW117671   4.097   4.884   3.514  1.5948  1.0497 -0.4024
 5410SOL    HW217672   4.191   4.874   3.396 -0.5236 -0.6586 -2.0358
 5411SOL     OW17673   5.678   2.678   2.350 -0.0999  0.1221 -0.8602
 5411SOL    HW117674   5.621   2.731   2.404  1.3861  2.7493 -1.6813
 5411SOL    HW217675   5.715   2.613   2.410 -0.8342  0.9841  0.5635
 5412SOL     OW17676   5.257   7.100   3.319  0.9823 -0.2897  0.0182
 5412SOL    HW117677   5.257   7.013   3.278  0.1421 -0.3790  0.1926
 5412SOL    HW217678   5.335   7.099   3.375  0.8824 -1.0008  0.1604
 5413SOL     OW17679   1.817   4.045   1.990 -0.1506  0.1891  0.3657
 5413SOL    HW117680   1.776   4.118   1.944  0.6586 -0.0690 -0.8078
 5413SOL    HW217681   1.795   3.968   1.937  1.4017 -0.0137 -0.0231
 5414SOL     OW17682   3.328   2.720  12.312  0.2778 -0.5564 -0.0703
 5414SOL    HW117683   3.410   2.681  12.342  1.7121  1.0375 -1.6128
 5414SOL    HW217684   3.302   2.779  12.383 -0.0807 -1.7915  0.8418
 5415SOL     OW17685   4.689   5.618   1.739 -0.4701  0.1121  0.3819
 5415SOL    HW117686   4.705   5.539   1.687  0.6327 -0.1857  1.1380
 5415SOL    HW217687   4.707   5.691   1.679 -1.4164 -0.1885 -0.2972
 5416SOL     OW17688   1.396   7.237   3.840  0.6794 -0.0427  0.1535
 5416SOL    HW117689   1.365   7.327   3.836  0.5682  0.1778  3.2706
 5416SOL    HW217690   1.339   7.195   3.905  0.8637 -2.3396 -1.0519
 5417SOL     OW17691   6.298   1.194  10.758  0.7065  0.0792  0.1800
 5417SOL    HW117692   6.250   1.276  10.766  0.4744  0.1284 -1.2947
 5417SOL    HW217693   6.387   1.221  10.736  0.8469 -0.0539  0.5813
 5418SOL     OW17694   0.589   5.585   4.381 -0.0611  0.9219 -0.2252
 5418SOL    HW117695   0.658   5.633   4.426  1.0980  0.3728 -1.3352
 5418SOL    HW217696   0.625   5.569   4.293 -0.1834 -2.2918  0.1849
 5419SOL     OW17697   1.121   7.061   5.494 -0.6197 -0.2295 -0.1910
 5419SOL    HW117698   1.093   7.110   5.417  2.5865  0.3134 -1.1678
 5419SOL    HW217699   1.159   6.980   5.458  0.3595 -0.2591  0.8380
 5420SOL     OW17700   5.674   3.695  11.999  0.2953 -0.2880 -0.2873
 5420SOL    HW117701   5.668   3.675  11.905 -0.3400  0.1673 -0.3493
 5420SOL    HW217702   5.745   3.758  12.005 -0.5106  0.6821 -0.6442
 5421SOL     OW17703   5.705   4.272  11.618 -0.3382 -0.2052  0.8009
 5421SOL    HW117704   5.801   4.277  11.619 -0.3517  0.0438  1.1230
 5421SOL    HW217705   5.679   4.290  11.709 -0.7369  0.7561  0.5049
 5422SOL     OW17706   2.647   5.850  11.283 -0.0320  0.4199 -0.4957
 5422SOL    HW117707   2.603   5.927  11.248  1.6740  1.6075 -0.1737
 5422SOL    HW217708   2.585   5.814  11.346 -1.9458 -0.0548 -2.5114
 5423SOL     OW17709   4.007   6.551  11.687  0.0246 -0.2164  0.0581
 5423SOL    HW117710   3.914   6.536  11.671 -0.0629  0.1527  0.2015
 5423SOL    HW217711   4.045   6.556  11.599 -0.3684  1.2529 -0.0584
 5424SOL     OW17712   0.102   0.165   5.368 -0.4323 -0.3574  0.5346
 5424SOL    HW117713   0.013   0.165   5.332 -1.1503 -0.0372  2.1821
 5424SOL    HW217714   0.094   0.215   5.450  1.4344  0.2826  0.3557
 5425SOL     OW17715   0.311   3.177  11.067  0.2986  0.5270 -0.1318
 5425SOL    HW117716   0.401   3.148  11.049  0.4061 -1.3125  2.6832
 5425SOL    HW217717   0.319   3.228  11.148 -1.2671 -0.4063  0.6529
 5426SOL     OW17718   7.533   6.658   5.307  0.5865 -0.2667 -0.2981
 5426SOL    HW117719   7.527   6.706   5.224 -0.6851  0.0554 -0.0382
 5426SOL    HW217720   7.453   6.606   5.310  0.5188 -0.1033  0.8375
 5427SOL     OW17721   6.664   4.019   3.044 -0.2206 -0.2951  0.0681
 5427SOL    HW117722   6.660   3.998   3.138  0.2406 -0.8759 -0.0395
 5427SOL    HW217723   6.664   3.934   3.001 -2.0597 -0.0441 -0.5435
 5428SOL     OW17724   5.593   3.227   3.451 -0.5478 -0.7834  0.0027
 5428SOL    HW117725   5.639   3.145   3.429  0.5220 -0.3594  0.5707
 5428SOL    HW217726   5.624   3.248   3.539 -0.3162  0.5651 -0.3916
 5429SOL     OW17727   3.524   1.101   5.394  0.1564  0.4612  0.1165
 5429SOL    HW117728   3.466   1.029   5.416 -1.1596  1.8523  1.4244
 5429SOL    HW217729   3.492   1.175   5.447  3.4651  1.1589  1.3794
 5430SOL     OW17730   0.689   0.807   2.337  0.0998  0.3648 -0.3036
 5430SOL    HW117731   0.740   0.863   2.396  0.9557  1.0323 -1.6376
 5430SOL    HW217732   0.699   0.846   2.251  0.1339 -1.4214 -1.1686
 5431SOL     OW17733   5.891   5.847  12.067 -0.3965 -0.0486 -0.1549
 5431SOL    HW117734   5.937   5.929  12.050  1.1119 -0.4150  1.7606
 5431SOL    HW217735   5.799   5.872  12.076 -0.0487  1.3318 -0.2035
 5432SOL     OW17736   6.083   1.111   4.372  0.3997 -0.2482 -0.3014
 5432SOL    HW117737   6.125   1.042   4.423  0.5773  0.7018  0.8853
 5432SOL    HW217738   5.998   1.074   4.348  0.6874 -1.0573 -0.1118
 5433SOL     OW17739   1.421   0.397   9.226 -0.0167 -0.6423  0.6600
 5433SOL    HW117740   1.461   0.391   9.313 -0.3687  0.7454  0.9484
 5433SOL    HW217741   1.418   0.307   9.195  2.4481 -0.9238  1.0203
 5434SOL     OW17742   6.382   1.246   1.599  0.4649  0.0143  0.0017
 5434SOL    HW117743   6.290   1.233   1.577  0.3774  1.0519 -0.3056
 5434SOL    HW217744   6.397   1.340   1.586  1.7906 -0.2759 -0.8223
 5435SOL     OW17745   3.065   0.579   1.822 -0.0640 -0.1725 -0.0564
 5435SOL    HW117746   3.051   0.636   1.747  2.5434  0.3680 -0.2529
 5435SOL    HW217747   3.027   0.625   1.896  0.9410  1.3007 -0.4180
 5436SOL     OW17748   2.195   6.411   9.916  0.2542  0.4895 -0.1421
 5436SOL    HW117749   2.241   6.478   9.866  0.0583  0.4702 -0.3473
 5436SOL    HW217750   2.152   6.459   9.987 -1.4951  0.8762 -1.3792
 5437SOL     OW17751   6.969   3.933   9.161 -0.1357  0.2001  0.4571
 5437SOL    HW117752   7.014   3.854   9.192 -0.3621  0.0859  0.4909
 5437SOL    HW217753   6.901   3.900   9.102  0.1464  0.4027  0.0153
 5438SOL     OW17754   7.230   0.491   5.653 -0.0612  0.5946  0.2027
 5438SOL    HW117755   7.146   0.477   5.610 -0.1311  1.0788  0.1660
 5438SOL    HW217756   7.231   0.585   5.673  1.0346  0.8915 -1.0429
 5439SOL     OW17757   0.530   2.880   5.580  0.1645 -0.5138 -0.2849
 5439SOL    HW117758   0.464   2.913   5.641  0.4505 -0.6919  0.1258
 5439SOL    HW217759   0.500   2.792   5.556 -1.0192  0.3132 -2.0046
 5440SOL     OW17760   7.006   2.637   0.686 -0.2671 -0.1139 -0.4577
 5440SOL    HW117761   6.944   2.585   0.636 -0.7890 -0.0079  0.0712
 5440SOL    HW217762   7.065   2.674   0.620  1.2351 -2.7475 -0.7368
 5441SOL     OW17763   1.530   4.347   7.995  0.3785  0.0180  0.1759
 5441SOL    HW117764   1.563   4.339   8.085 -0.3271 -0.9919  0.3526
 5441SOL    HW217765   1.608   4.351   7.941  0.8436 -2.4776  0.5716
 5442SOL     OW17766   2.396   6.588   3.775 -0.4612 -0.3051 -0.2390
 5442SOL    HW117767   2.358   6.520   3.831 -3.3412  1.7959  0.5681
 5442SOL    HW217768   2.377   6.559   3.686 -0.6178 -1.1069  0.0460
 5443SOL     OW17769   3.587   3.567   0.491 -0.1180  0.0189 -0.3116
 5443SOL    HW117770   3.648   3.587   0.562  0.1936 -1.6903 -0.0786
 5443SOL    HW217771   3.554   3.480   0.510  0.2620 -0.6577 -2.4741
 5444SOL     OW17772   4.649   1.279   3.921  0.2377 -0.4978 -0.1385
 5444SOL    HW117773   4.721   1.280   3.858 -1.0595  1.0455 -1.7054
 5444SOL    HW217774   4.576   1.320   3.874 -0.9097  0.3840  2.2736
 5445SOL     OW17775   2.553   6.798  11.182 -0.1676 -0.2871  0.6727
 5445SOL    HW117776   2.513   6.825  11.264 -0.1541 -1.6584  1.1707
 5445SOL    HW217777   2.496   6.729  11.148  1.1931 -1.5922  0.9000
 5446SOL     OW17778   0.115   3.264  11.853 -0.0527 -0.0177 -0.0015
 5446SOL    HW117779   0.099   3.216  11.772 -0.5030  0.5769 -0.2664
 5446SOL    HW217780   0.043   3.326  11.860 -0.5701 -0.7196  1.3617
 5447SOL     OW17781   2.542   6.323   5.076  0.9053  0.1857 -0.4783
 5447SOL    HW117782   2.457   6.308   5.033  1.3290  1.1731 -1.7319
 5447SOL    HW217783   2.593   6.245   5.056  0.3997 -0.2882  0.0406
 5448SOL     OW17784   0.658   4.139   9.693  0.3912  0.1655 -0.2815
 5448SOL    HW117785   0.706   4.090   9.626 -2.3730 -0.2862 -2.0856
 5448SOL    HW217786   0.647   4.226   9.655  0.3711  0.4777  0.4231
 5449SOL     OW17787   5.604   6.050   9.467  0.2222 -0.2222 -0.0863
 5449SOL    HW117788   5.536   6.116   9.463  0.1351 -0.3222 -0.2480
 5449SOL    HW217789   5.680   6.091   9.426  0.8079  0.5475  1.6781
 5450SOL     OW17790   6.337   0.459   8.401  0.3267 -0.9811 -0.4373
 5450SOL    HW117791   6.395   0.486   8.331  2.5666 -1.4010  1.1577
 5450SOL    HW217792   6.337   0.363   8.397 -0.3304 -0.9884 -0.4584
 5451SOL     OW17793   7.168   4.289  10.024  0.1529  0.1761  0.6953
 5451SOL    HW117794   7.146   4.313   9.934  1.5745  0.5584  0.4306
 5451SOL    HW217795   7.087   4.305  10.074 -0.3049  1.0707 -0.3036
 5452SOL     OW17796   0.105   5.164  11.345 -0.2332 -0.3429  0.0438
 5452SOL    HW117797   0.077   5.073  11.352 -1.4362  0.0056 -0.0710
 5452SOL    HW217798   0.120   5.177  11.252  0.4863 -0.5691  0.1206
 5453SOL     OW17799   1.836   1.180   7.363 -0.0586 -0.2714 -0.9047
 5453SOL    HW117800   1.911   1.196   7.306  0.4595 -0.4708 -0.2930
 5453SOL    HW217801   1.763   1.162   7.303  0.5566 -0.8278 -1.4908
 5454SOL     OW17802   0.644   1.371   9.820  0.2813 -0.4308 -0.1903
 5454SOL    HW117803   0.554   1.338   9.820 -0.1670  0.7263  0.6238
 5454SOL    HW217804   0.637   1.463   9.794  0.9885  0.1764  1.5412
 5455SOL     OW17805   7.593   5.300   8.183 -0.1910  0.3426 -0.4304
 5455SOL    HW117806   7.685   5.274   8.178  0.3336  1.6865  1.2224
 5455SOL    HW217807   7.567   5.279   8.273 -0.5682  2.7042  0.0831
 5456SOL     OW17808   4.472   7.952   1.136  0.1919 -0.2905 -0.3266
 5456SOL    HW117809   4.438   8.039   1.116 -2.5567 -1.3120 -0.5382
 5456SOL    HW217810   4.515   7.924   1.055  0.5316  0.5950 -0.4633
 5457SOL     OW17811   4.240   2.341   4.256  0.0469 -0.4087 -0.2254
 5457SOL    HW117812   4.222   2.248   4.270  0.9626 -0.8077 -1.5263
 5457SOL    HW217813   4.275   2.371   4.340 -4.1835 -0.1183  1.6904
 5458SOL     OW17814   5.006   7.073  10.852  0.4465  0.1523  0.3036
 5458SOL    HW117815   5.054   7.152  10.828  0.6017 -0.1730 -0.5096
 5458SOL    HW217816   5.054   7.037  10.927  0.6807  0.5446  0.3465
 5459SOL     OW17817   0.961   1.978   3.701 -0.3242 -0.4955 -0.0535
 5459SOL    HW117818   0.908   2.049   3.664  0.2141 -0.2380 -0.3515
 5459SOL    HW217819   1.021   2.022   3.762 -0.4103 -0.7745  0.2330
 5460SOL     OW17820   6.205   3.970  11.126  0.2570  0.4190 -0.4435
 5460SOL    HW117821   6.192   4.061  11.098 -0.7582  0.3341 -0.2911
 5460SOL    HW217822   6.121   3.928  11.110  0.5132 -0.3288  0.1110
 5461SOL     OW17823   7.740   1.324   8.863  0.8470  0.1063 -0.0212
 5461SOL    HW117824   7.646   1.340   8.876  1.0929  1.2153  0.4300
 5461SOL    HW217825   7.745   1.289   8.774 -0.2570 -2.4092  0.8112
 5462SOL     OW17826   6.560   1.526   9.054 -0.0704  0.3533 -0.1215
 5462SOL    HW117827   6.589   1.478   8.976  0.7734  0.9608 -0.2019
 5462SOL    HW217828   6.465   1.519   9.053 -0.0038 -0.8970 -0.3982
 5463SOL     OW17829   6.631   2.408   3.939 -0.2852 -0.0825 -0.3883
 5463SOL    HW117830   6.595   2.479   3.887  2.6558  1.6478 -0.3016
 5463SOL    HW217831   6.588   2.329   3.907 -0.3299  1.1856 -3.7748
 5464SOL     OW17832   7.601   4.560   1.947 -0.0370  0.0498 -0.1175
 5464SOL    HW117833   7.638   4.536   2.032  1.0083 -1.4094 -0.9469
 5464SOL    HW217834   7.571   4.478   1.909 -2.6359  0.9673 -0.2297
 5465SOL     OW17835   5.851   0.135  10.698  0.1907  0.4759  0.6021
 5465SOL    HW117836   5.875   0.220  10.662 -0.3135  0.7611  0.9352
 5465SOL    HW217837   5.926   0.078  10.676 -0.1373  0.6061 -0.9455
 5466SOL     OW17838   7.286   3.087   9.940 -0.0325  0.1430  0.5049
 5466SOL    HW117839   7.368   3.107   9.896  0.0757  0.1780  0.7206
 5466SOL    HW217840   7.305   3.009   9.991 -0.7711 -1.2406 -1.2369
 5467SOL     OW17841   1.976   1.811   6.635  0.3439 -0.4587 -0.2632
 5467SOL    HW117842   2.053   1.849   6.593  2.6534 -1.4754  2.6627
 5467SOL    HW217843   2.000   1.720   6.651 -1.3144 -0.7164  1.0535
 5468SOL     OW17844   0.753   3.268   7.565  0.1076  0.3706 -0.1050
 5468SOL    HW117845   0.699   3.308   7.633  0.4817 -0.7699  0.9097
 5468SOL    HW217846   0.793   3.342   7.519 -0.8911  1.1814  0.2954
 5469SOL     OW17847   3.249   7.735   7.664  0.9760 -0.4075  0.2340
 5469SOL    HW117848   3.154   7.737   7.661  0.9923  1.4992 -1.5353
 5469SOL    HW217849   3.274   7.659   7.611  0.4758 -1.9626  2.1467
 5470SOL     OW17850   3.721   0.795   0.965  0.1321  0.2539 -0.0453
 5470SOL    HW117851   3.688   0.854   0.897  0.7222  0.9179  0.2308
 5470SOL    HW217852   3.792   0.747   0.922 -0.0522  0.0689 -0.1420
 5471SOL     OW17853   5.373   0.040   7.312  0.3321  0.3158  0.1670
 5471SOL    HW117854   5.365   0.116   7.255 -0.7483  0.7229  0.8371
 5471SOL    HW217855   5.325  -0.029   7.266 -0.2355  0.5446  0.4165
 5472SOL     OW17856   2.685   5.031   0.103  0.2828  0.1794 -0.3421
 5472SOL    HW117857   2.780   5.015   0.101  0.3021  0.3303 -0.6489
 5472SOL    HW217858   2.677   5.114   0.150  0.1952 -0.6047  1.0731
 5473SOL     OW17859   0.937   0.402   4.183 -0.4502 -0.2799  0.2272
 5473SOL    HW117860   0.970   0.329   4.131  3.1559  1.8296 -0.7786
 5473SOL    HW217861   0.892   0.459   4.119 -0.6847 -0.2045  0.4544
 5474SOL     OW17862   4.366   6.107   1.167 -0.3700  0.8444  0.5113
 5474SOL    HW117863   4.437   6.164   1.196 -0.2799  0.8301  0.3136
 5474SOL    HW217864   4.401   6.018   1.176 -0.0501  0.8710 -0.4360
 5475SOL     OW17865   3.500   1.696   0.726 -0.4794 -0.0302  0.1212
 5475SOL    HW117866   3.525   1.787   0.742  1.6071 -0.5562  0.1930
 5475SOL    HW217867   3.561   1.645   0.780 -1.8178 -1.4730  0.3376
 5476SOL     OW17868   1.458   7.555   0.940 -0.0334  0.1454 -0.2086
 5476SOL    HW117869   1.417   7.620   0.996  1.2131  0.0147  0.9001
 5476SOL    HW217870   1.461   7.596   0.853 -0.8108  0.8729  0.1011
 5477SOL     OW17871   5.978   1.597  10.712 -0.4197  0.4218 -0.4506
 5477SOL    HW117872   5.891   1.571  10.740 -0.3992  0.4310 -0.3796
 5477SOL    HW217873   6.005   1.664  10.775 -0.0052 -0.2109  0.0531
 5478SOL     OW17874   4.076   2.682   6.745 -0.0967  0.3181 -0.1875
 5478SOL    HW117875   4.020   2.659   6.820  0.5702  0.6601  0.4227
 5478SOL    HW217876   4.015   2.715   6.679 -0.5954  0.9112  0.5579
 5479SOL     OW17877   3.267   2.170   7.504  0.6898 -0.0588 -0.3735
 5479SOL    HW117878   3.315   2.252   7.502  0.1107  0.2899 -0.0952
 5479SOL    HW217879   3.331   2.105   7.535  0.3708  0.8272  2.3887
 5480SOL     OW17880   5.307   7.064   9.746  0.1084 -0.5137 -0.0147
 5480SOL    HW117881   5.256   7.055   9.665  0.7726 -0.2944 -0.4711
 5480SOL    HW217882   5.242   7.089   9.812 -0.1351  1.5991 -0.9689
 5481SOL     OW17883   0.545   3.919   1.778  0.0948 -0.6926 -0.0614
 5481SOL    HW117884   0.545   3.905   1.684 -1.2930 -0.0405 -0.1833
 5481SOL    HW217885   0.544   3.831   1.816  0.5949 -0.9528 -0.6414
 5482SOL     OW17886   7.461   5.794   2.412 -0.4061 -0.0910 -0.0099
 5482SOL    HW117887   7.521   5.722   2.391  0.5714  0.4365  0.8765
 5482SOL    HW217888   7.389   5.784   2.349 -0.3312 -1.8681  0.1170
 5483SOL     OW17889   0.957   2.294   7.850 -0.2611 -0.0075 -0.5318
 5483SOL    HW117890   0.890   2.303   7.917 -0.2518 -0.4507 -0.4618
 5483SOL    HW217891   1.031   2.345   7.883 -0.5732  0.5032 -0.6223
 5484SOL     OW17892   1.819   2.386   2.572 -0.2337  0.5847 -0.4018
 5484SOL    HW117893   1.852   2.389   2.661 -1.6450 -0.4112  0.1914
 5484SOL    HW217894   1.874   2.448   2.524 -0.3464  2.2312  1.4597
 5485SOL     OW17895   0.383   3.035  10.225  0.5796  0.3942 -0.1871
 5485SOL    HW117896   0.311   3.070  10.278  0.7316 -0.9885  0.9840
 5485SOL    HW217897   0.461   3.077  10.260  0.4738  1.1044 -0.7707
 5486SOL     OW17898   5.232   0.743   7.731  0.3605  0.1510 -0.1094
 5486SOL    HW117899   5.242   0.741   7.826  1.8041  1.3955 -0.2082
 5486SOL    HW217900   5.306   0.693   7.698 -0.9051 -1.5041 -0.5853
 5487SOL     OW17901   7.011   6.123   0.910 -0.0045 -0.7704  0.0624
 5487SOL    HW117902   7.022   6.090   0.999  1.9393 -0.3824  0.0069
 5487SOL    HW217903   7.038   6.214   0.915 -3.0650  0.2587 -0.2856
 5488SOL     OW17904   2.579   7.018   1.916  0.4012 -0.1726 -0.0452
 5488SOL    HW117905   2.600   6.925   1.922 -0.1648 -0.2367  1.6296
 5488SOL    HW217906   2.491   7.025   1.954  1.0046  1.2034  1.2130
 5489SOL     OW17907   1.603   0.307   2.063 -0.3270  0.3733 -0.3788
 5489SOL    HW117908   1.515   0.273   2.079  0.5029 -1.0334  1.6205
 5489SOL    HW217909   1.656   0.272   2.134  2.4408 -0.9476 -2.8742
 5490SOL     OW17910   7.727   4.377   2.214 -0.6944  0.5870 -0.1295
 5490SOL    HW117911   7.793   4.319   2.252 -2.7810 -0.6580  1.8293
 5490SOL    HW217912   7.752   4.465   2.244 -0.5809 -0.0147  1.6507
 5491SOL     OW17913   3.294   0.338  11.860  0.1725  0.0449 -0.4102
 5491SOL    HW117914   3.371   0.363  11.809  1.5334 -1.7893  0.6231
 5491SOL    HW217915   3.271   0.251  11.828  0.7474 -0.9348  1.6923
 5492SOL     OW17916   6.783   3.144   5.651  0.6797 -0.0628  0.4432
 5492SOL    HW117917   6.800   3.148   5.745  0.1663  0.3437  0.5200
 5492SOL    HW217918   6.729   3.221   5.633  0.5108 -0.3130 -0.1277
 5493SOL     OW17919   5.862   3.103   6.541 -0.2770  0.4214  0.4822
 5493SOL    HW117920   5.896   3.064   6.460  0.7232 -0.2814  1.1983
 5493SOL    HW217921   5.787   3.156   6.514 -0.8545 -0.9482 -0.7180
 5494SOL     OW17922   7.822   3.100   5.946 -0.0315 -0.1306 -0.0128
 5494SOL    HW117923   7.882   3.081   5.874 -0.4944 -2.4486  0.1283
 5494SOL    HW217924   7.835   3.028   6.008  0.3654  1.7863  2.2892
 5495SOL     OW17925   4.011   1.913   8.010  0.1704 -0.4207 -0.3422
 5495SOL    HW117926   4.070   1.936   8.082 -0.3713  0.5026 -0.1830
 5495SOL    HW217927   4.057   1.941   7.931  0.3736 -0.6099 -0.2920
 5496SOL     OW17928   4.189   1.573   8.440 -0.2408 -0.0419  0.1367
 5496SOL    HW117929   4.280   1.578   8.466 -0.9812  2.3590  2.7552
 5496SOL    HW217930   4.149   1.510   8.500 -0.3328 -1.3804 -1.2411
 5497SOL     OW17931   0.095   0.509   8.544  0.9647  0.6899  0.0666
 5497SOL    HW117932   0.032   0.572   8.581  1.1138 -0.0123  1.6141
 5497SOL    HW217933   0.096   0.528   8.451 -2.1887  0.1791 -0.1915
 5498SOL     OW17934   5.316   2.249   2.033  0.7060  0.4103 -0.0577
 5498SOL    HW117935   5.371   2.316   2.073  3.7717 -2.4973  1.0177
 5498SOL    HW217936   5.362   2.224   1.953 -0.5282 -0.2358 -0.5995
 5499SOL     OW17937   1.145   6.248   4.522  0.1216 -0.0928 -0.3766
 5499SOL    HW117938   1.153   6.269   4.429  2.0397 -1.3002 -0.5563
 5499SOL    HW217939   1.068   6.296   4.552  0.6774  2.0242 -2.0951
 5500SOL     OW17940   1.866   2.974   8.488 -0.3096  0.5274 -0.1552
 5500SOL    HW117941   1.927   2.964   8.415 -0.3672 -0.3899 -0.0905
 5500SOL    HW217942   1.878   3.064   8.517  1.7910  0.0845  0.5390
 5501SOL     OW17943   0.831   5.490  12.415  0.0163 -0.3997 -0.0229
 5501SOL    HW117944   0.823   5.474  12.509 -1.2859 -0.5135 -0.1327
 5501SOL    HW217945   0.741   5.502  12.385  0.3974 -0.5684 -1.2917
 5502SOL     OW17946   5.952   0.915   6.647  0.1794 -0.0455 -0.0461
 5502SOL    HW117947   5.947   0.941   6.739 -0.4087  1.4086 -0.4677
 5502SOL    HW217948   5.922   0.991   6.598  1.0632 -0.5740 -1.4926
 5503SOL     OW17949   7.582   0.254   7.381 -0.0606 -0.1759  0.2711
 5503SOL    HW117950   7.556   0.239   7.472 -0.1411  1.7687  0.6101
 5503SOL    HW217951   7.544   0.339   7.359  0.8810 -0.1084 -1.2247
 5504SOL     OW17952   4.297   5.980   8.126  0.4511  0.0024  0.0568
 5504SOL    HW117953   4.244   6.055   8.098  3.1057  2.0716  0.1061
 5504SOL    HW217954   4.323   6.002   8.215  0.1472 -1.7223  0.6001
 5505SOL     OW17955   7.840   2.762   8.626 -0.4148 -0.4627  0.4037
 5505SOL    HW117956   7.845   2.835   8.687 -1.6233 -0.1245  0.1204
 5505SOL    HW217957   7.818   2.687   8.681 -2.5902  0.0383  0.2936
 5506SOL     OW17958   5.383   7.356   1.180 -0.2942  0.4003  0.0239
 5506SOL    HW117959   5.325   7.357   1.257  0.7531  0.0752  0.8396
 5506SOL    HW217960   5.471   7.356   1.216  0.2269 -0.9328 -1.1674
 5507SOL     OW17961   4.939   0.118   0.709  0.2290  0.4251 -0.1939
 5507SOL    HW117962   4.965   0.161   0.627  1.8159 -2.3648 -1.2920
 5507SOL    HW217963   5.009   0.141   0.771  0.5177  0.2940 -0.4656
 5508SOL     OW17964   2.678   2.544   6.227  0.3277  0.0353 -0.6222
 5508SOL    HW117965   2.666   2.626   6.180 -0.1973  0.9598  1.0517
 5508SOL    HW217966   2.773   2.528   6.222  0.5503  1.1535 -0.3284
 5509SOL     OW17967   1.413   7.020   5.184  0.0766 -0.3983  0.0878
 5509SOL    HW117968   1.501   7.052   5.201 -0.2740  1.2353 -0.9867
 5509SOL    HW217969   1.381   6.991   5.269  0.7255  1.3879  0.9800
 5510SOL     OW17970   2.585   5.302  10.789  0.6957  0.2827 -0.7012
 5510SOL    HW117971   2.572   5.221  10.837  0.0498 -0.0676 -1.4403
 5510SOL    HW217972   2.658   5.284  10.730 -0.5230 -0.3554 -2.0745
 5511SOL     OW17973   3.589   7.148   5.545 -0.2836 -0.4299 -0.3737
 5511SOL    HW117974   3.664   7.088   5.545 -1.0136 -1.3810  0.2191
 5511SOL    HW217975   3.557   7.145   5.635  0.1994  1.5770 -0.0980
 5512SOL     OW17976   0.323   0.860   8.069 -0.3523  0.2035 -0.2546
 5512SOL    HW117977   0.297   0.943   8.108  0.1734  0.0455  0.4585
 5512SOL    HW217978   0.294   0.793   8.131 -0.3994 -0.1235 -0.6204
 5513SOL     OW17979   2.748   0.656  10.430 -0.3705 -0.0285  0.2034
 5513SOL    HW117980   2.695   0.585  10.395 -1.5072  0.8184  0.1768
 5513SOL    HW217981   2.791   0.694  10.352 -0.2211 -0.3038  0.1502
 5514SOL     OW17982   5.121   2.198   7.899  0.3254 -0.3280 -0.0770
 5514SOL    HW117983   5.149   2.232   7.814  0.5658  0.8243  0.4379
 5514SOL    HW217984   5.026   2.187   7.890  0.4156 -0.6921 -0.6440
 5515SOL     OW17985   1.323   0.307   6.663  0.6376 -0.5104 -0.2758
 5515SOL    HW117986   1.401   0.338   6.709 -0.0972 -0.6563  1.1046
 5515SOL    HW217987   1.279   0.388   6.635  0.4994 -0.3806  0.2995
 5516SOL     OW17988   0.698   2.565   8.148  0.4867  0.2896 -0.4502
 5516SOL    HW117989   0.665   2.597   8.064 -3.5766  1.7075  1.4527
 5516SOL    HW217990   0.743   2.641   8.186 -0.7995  0.7996  0.0907
 5517SOL     OW17991   7.132   3.273   8.963 -0.1325 -0.1084 -0.3354
 5517SOL    HW117992   7.213   3.307   8.925  1.0175  0.9293  2.7125
 5517SOL    HW217993   7.121   3.186   8.924  3.1559 -0.7940 -0.0053
 5518SOL     OW17994   5.977   5.333   8.995  0.3816  0.2396  0.3080
 5518SOL    HW117995   6.002   5.243   8.976  0.8008  0.4160  0.0152
 5518SOL    HW217996   6.059   5.381   8.996  0.0247  0.9635 -1.3771
 5519SOL     OW17997   0.218   4.270   9.740 -0.0194 -0.4130 -0.0633
 5519SOL    HW117998   0.129   4.248   9.770 -0.1655  1.3728  0.9031
 5519SOL    HW217999   0.250   4.334   9.803  1.2299  0.4315 -1.5007
 5520SOL     OW18000   4.560   6.665   0.493 -0.5222 -0.1184  0.2954
 5520SOL    HW118001   4.617   6.668   0.416 -0.1658  1.0717  0.5893
 5520SOL    HW218002   4.471   6.661   0.457 -0.3794  0.8460 -0.2006
 5521SOL     OW18003   6.482   1.334   0.379 -0.1838  0.3149  0.4045
 5521SOL    HW118004   6.540   1.393   0.427  0.1609 -0.9301  1.5950
 5521SOL    HW218005   6.433   1.391   0.320  1.1505  1.5882  0.4664
 5522SOL     OW18006   2.488   3.545   7.173 -0.3786  0.1600  0.2288
 5522SOL    HW118007   2.545   3.559   7.098  1.3705  0.6848  1.5875
 5522SOL    HW218008   2.498   3.625   7.225 -0.7210 -0.6283  1.5401
 5523SOL     OW18009   5.424   6.348   9.984  0.1269 -0.1702 -0.5825
 5523SOL    HW118010   5.482   6.418  10.014  0.8135 -1.0064  0.1221
 5523SOL    HW218011   5.429   6.282  10.053  1.2838 -1.9085 -2.2333
 5524SOL     OW18012   7.569   3.281   5.650 -0.0298  0.9627 -0.1897
 5524SOL    HW118013   7.488   3.328   5.630 -0.0352  1.1270  0.2121
 5524SOL    HW218014   7.545   3.189   5.643 -0.3852  1.0049  0.4363
 5525SOL     OW18015   4.639   0.549   9.586 -0.5379 -0.5557 -0.1615
 5525SOL    HW118016   4.689   0.473   9.616 -1.5241 -2.1221 -2.2417
 5525SOL    HW218017   4.598   0.583   9.665  0.1621 -2.0198  0.8832
 5526SOL     OW18018   7.694   2.783  11.035  0.1863  0.1814  0.5802
 5526SOL    HW118019   7.758   2.812  10.970 -1.3480  0.7487 -0.7211
 5526SOL    HW218020   7.619   2.753  10.984 -0.4086 -0.9775  2.0531
 5527SOL     OW18021   3.589   6.522   0.181  0.5895 -0.3034 -0.5316
 5527SOL    HW118022   3.505   6.500   0.221  1.3145 -3.6076 -0.5542
 5527SOL    HW218023   3.571   6.600   0.129 -1.9296  0.3062  1.0632
 5528SOL     OW18024   1.671   3.215   2.788  0.8054 -0.1858 -0.3695
 5528SOL    HW118025   1.682   3.214   2.693  1.2746  0.0221 -0.3207
 5528SOL    HW218026   1.614   3.290   2.805 -0.3848 -1.0063 -0.5891
 5529SOL     OW18027   5.288   0.293   3.439  0.1716  0.8832 -0.5607
 5529SOL    HW118028   5.210   0.313   3.387 -1.3982  1.6420  1.9361
 5529SOL    HW218029   5.277   0.200   3.462  0.7376  0.6204 -1.2799
 5530SOL     OW18030   6.086   5.105   8.928  0.1453 -0.5839  0.0185
 5530SOL    HW118031   6.115   5.037   8.988  0.4914 -0.8128 -0.4006
 5530SOL    HW218032   6.153   5.106   8.859  0.1433  0.1725  0.0182
 5531SOL     OW18033   6.975   3.466   6.593 -0.5613 -0.1773 -0.3504
 5531SOL    HW118034   6.975   3.556   6.626 -1.5644 -0.1796 -0.3211
 5531SOL    HW218035   7.015   3.415   6.664 -1.6398 -0.0059  0.4168
 5532SOL     OW18036   5.751   1.775   6.367  0.1585  0.0084  0.4069
 5532SOL    HW118037   5.656   1.763   6.364  0.5477 -5.1422 -0.7903
 5532SOL    HW218038   5.772   1.779   6.460 -1.1236  0.4314  0.6958
 5533SOL     OW18039   1.803   5.933   7.239  0.4237  0.1379 -0.2619
 5533SOL    HW118040   1.769   5.915   7.327  1.4710 -0.9904 -0.0587
 5533SOL    HW218041   1.761   5.868   7.183  0.1607  0.5160 -0.5083
 5534SOL     OW18042   0.221   0.605   6.732 -0.4546  0.1953 -0.1121
 5534SOL    HW118043   0.134   0.622   6.696 -0.9455 -1.8983 -0.0439
 5534SOL    HW218044   0.248   0.689   6.770 -1.2256  1.6584 -2.5410
 5535SOL     OW18045   5.206   7.437   7.095 -0.5191 -0.0131  0.1169
 5535SOL    HW118046   5.250   7.427   7.180 -2.6811 -1.9735  1.1199
 5535SOL    HW218047   5.204   7.532   7.080  2.1425  0.2571  0.9661
 5536SOL     OW18048   6.883   6.493  12.383 -0.0540 -0.6809 -0.3436
 5536SOL    HW118049   6.970   6.478  12.346  1.6452  1.2271  2.4622
 5536SOL    HW218050   6.869   6.420  12.443 -0.8440 -1.4664 -1.4540
 5537SOL     OW18051   2.548   4.741   7.339 -0.0656 -0.2757 -0.0525
 5537SOL    HW118052   2.474   4.701   7.385  1.7423 -0.6754  2.7403
 5537SOL    HW218053   2.613   4.671   7.334  1.4078  0.9811  0.7506
 5538SOL     OW18054   0.399   3.180   0.739 -0.0385  0.1422  0.2166
 5538SOL    HW118055   0.437   3.267   0.753  0.3800  0.1557 -0.8758
 5538SOL    HW218056   0.323   3.196   0.683  1.2895 -0.3660 -1.8632
 5539SOL     OW18057   0.625   6.197   2.286 -0.4517  0.1081 -0.0611
 5539SOL    HW118058   0.675   6.167   2.362 -1.5713 -2.3257 -0.2039
 5539SOL    HW218059   0.582   6.277   2.317 -0.3086 -0.4232  1.6343
 5540SOL     OW18060   2.770   5.028   4.661 -0.0540 -0.2460  0.0871
 5540SOL    HW118061   2.782   4.959   4.725  0.0408 -1.1417 -0.8671
 5540SOL    HW218062   2.858   5.062   4.645 -0.1730  0.5453  1.0155
 5541SOL     OW18063   3.939   3.919  11.270  0.1165 -0.1233  0.0889
 5541SOL    HW118064   3.933   3.904  11.364 -1.6760  0.4750  0.1224
 5541SOL    HW218065   3.974   4.008  11.262  1.0629 -0.4817  0.1514
 5542SOL     OW18066   2.677   4.000   3.898  0.1775  0.2599 -0.0886
 5542SOL    HW118067   2.710   3.952   3.822 -0.7850 -0.2949 -0.1731
 5542SOL    HW218068   2.754   4.018   3.951  0.7174 -0.2553 -0.6935
 5543SOL     OW18069   1.048   5.039   1.916  0.2673  0.8309 -0.1220
 5543SOL    HW118070   1.054   4.943   1.914  2.4420  0.8147  1.9714
 5543SOL    HW218071   1.043   5.064   1.824  0.3756 -1.2699 -0.7595
 5544SOL     OW18072   0.047   6.995  11.014 -0.2081  0.1985 -0.5528
 5544SOL    HW118073  -0.003   6.972  10.936 -1.4116  1.4766 -0.1892
 5544SOL    HW218074  -0.011   7.051  11.065  1.1143  0.6509  0.5318
 5545SOL     OW18075   2.847   6.540   1.492  0.1997 -0.4710  0.3832
 5545SOL    HW118076   2.765   6.489   1.491 -0.5046  0.6209 -0.8829
 5545SOL    HW218077   2.855   6.572   1.403  1.1843  0.7739  0.9046
 5546SOL     OW18078   4.931   3.457  12.051 -0.4849 -0.4524  0.2716
 5546SOL    HW118079   4.923   3.527  12.116  0.1042 -0.5262  0.4255
 5546SOL    HW218080   5.021   3.464  12.019 -0.4698 -1.0533  0.1796
 5547SOL     OW18081   5.256   1.093   7.088  0.3545 -0.4462 -0.8569
 5547SOL    HW118082   5.228   1.176   7.051 -0.5999  0.3301  1.4205
 5547SOL    HW218083   5.189   1.030   7.061 -0.7451  0.2661  0.1445
 5548SOL     OW18084   2.193   7.642   9.551  0.0561  0.0302 -0.0181
 5548SOL    HW118085   2.157   7.583   9.617  0.6712  0.2455  0.5186
 5548SOL    HW218086   2.119   7.663   9.495 -0.0911 -1.5520 -0.4474
 5549SOL     OW18087   6.093   0.412   4.570 -0.2194 -0.4067  0.1693
 5549SOL    HW118088   6.158   0.422   4.500  0.4065  2.0195  1.0031
 5549SOL    HW218089   6.141   0.372   4.642  0.5285  1.6927  0.9032
 5550SOL     OW18090   4.535   6.485   5.759  0.0092 -0.5399  0.8696
 5550SOL    HW118091   4.599   6.501   5.828 -0.0585 -2.2037  1.3369
 5550SOL    HW218092   4.551   6.556   5.696  0.3337  0.7846  2.3602
 5551SOL     OW18093   6.585   5.893   0.243  0.3107 -0.1898 -0.1554
 5551SOL    HW118094   6.623   5.980   0.249 -0.6112  0.1647  0.9197
 5551SOL    HW218095   6.491   5.907   0.253  0.0441 -1.2092 -1.0266
 5552SOL     OW18096   0.631   7.488  10.196 -0.1938  0.1982 -0.0395
 5552SOL    HW118097   0.541   7.466  10.171 -0.4240 -2.9009  2.7284
 5552SOL    HW218098   0.622   7.562  10.255 -0.9627 -0.1009  0.2384
 5553SOL     OW18099   6.529   3.632   5.649 -0.0351  0.5090  0.6440
 5553SOL    HW118100   6.483   3.651   5.731  0.8126  0.4410  1.1427
 5553SOL    HW218101   6.592   3.703   5.640  1.1401 -0.4481  1.0130
 5554SOL     OW18102   2.141   7.684  10.073  0.3199  0.3286  0.5423
 5554SOL    HW118103   2.119   7.751  10.009  1.4690  0.3912  0.1889
 5554SOL    HW218104   2.058   7.642  10.094 -0.2004  0.9285 -0.2872
 5555SOL     OW18105   7.755   0.673   4.030  0.1076 -0.0456 -0.0676
 5555SOL    HW118106   7.741   0.648   3.939  0.7898  3.3585 -1.2360
 5555SOL    HW218107   7.821   0.743   4.026  0.4863 -0.0776  3.1007
 5556SOL     OW18108   7.147   2.415   9.002  0.1273 -0.1947  0.4448
 5556SOL    HW118109   7.143   2.461   8.918 -0.5407 -3.1267 -1.3014
 5556SOL    HW218110   7.055   2.403   9.026  0.2997 -0.1082  1.1570
 5557SOL     OW18111   6.549   3.055   2.282  0.2077  0.6736  0.0088
 5557SOL    HW118112   6.553   3.017   2.194 -3.3780  1.0775 -0.4834
 5557SOL    HW218113   6.521   2.982   2.338 -1.4475  1.2588  0.0125
 5558SOL     OW18114   2.618   4.063   4.836  0.4509  0.4701  0.0904
 5558SOL    HW118115   2.632   4.095   4.747 -0.0544  0.2256 -0.0834
 5558SOL    HW218116   2.586   4.139   4.884 -1.1240  0.1645 -0.4162
 5559SOL     OW18117   7.369   5.864   4.964 -0.2084  0.0780 -0.0037
 5559SOL    HW118118   7.455   5.824   4.981 -0.2706  0.2380  0.7660
 5559SOL    HW218119   7.306   5.798   4.992 -0.3317  1.3433  3.2777
 5560SOL     OW18120   1.228   4.279   7.031  0.1815  0.6142 -0.4025
 5560SOL    HW118121   1.277   4.198   7.039  0.7738  1.0095  0.0392
 5560SOL    HW218122   1.198   4.280   6.940 -1.3517 -0.9338  0.0259
 5561SOL     OW18123   6.631   3.777   0.564  0.0421  0.0831  0.2195
 5561SOL    HW118124   6.641   3.720   0.640 -0.1531 -0.2326  0.0083
 5561SOL    HW218125   6.640   3.865   0.599  0.9089 -0.0913  0.4643
 5562SOL     OW18126   0.695   5.907   1.480  0.0158  0.0031 -0.2402
 5562SOL    HW118127   0.675   5.993   1.516 -1.2436 -0.4700  0.2373
 5562SOL    HW218128   0.638   5.899   1.403 -0.3607 -0.6554  0.0981
 5563SOL     OW18129   2.149   0.147  10.741 -0.1966  0.1032  0.4485
 5563SOL    HW118130   2.177   0.178  10.655  0.5471  1.9679  1.2998
 5563SOL    HW218131   2.070   0.197  10.760  0.9135  1.4813  1.7673
 5564SOL     OW18132   1.219   5.898   9.902 -0.5284  0.1613 -0.5397
 5564SOL    HW118133   1.245   5.867   9.815 -0.3676 -1.3951  0.0395
 5564SOL    HW218134   1.124   5.890   9.903 -0.4586 -0.7569 -0.2513
 5565SOL     OW18135   5.133   0.758   2.484 -0.2645 -0.1760 -0.5546
 5565SOL    HW118136   5.194   0.767   2.557 -2.1082  0.5666  1.0113
 5565SOL    HW218137   5.062   0.819   2.505 -1.5330 -0.9697 -2.2800
 5566SOL     OW18138   1.063   2.148   4.739 -0.2100  0.8684  0.3151
 5566SOL    HW118139   1.026   2.171   4.825  0.2177 -2.7817  1.6751
 5566SOL    HW218140   0.990   2.160   4.678 -1.8663 -0.2449  1.9261
 5567SOL     OW18141   1.812   6.029   0.324 -0.0243 -0.1720 -0.0161
 5567SOL    HW118142   1.813   5.934   0.324 -1.0013 -0.1943  0.4889
 5567SOL    HW218143   1.873   6.054   0.393 -0.8333 -0.4698  0.8278
 5568SOL     OW18144   0.685   2.684   7.430  0.3517  0.7026 -0.5231
 5568SOL    HW118145   0.652   2.597   7.408  0.2605  0.7040 -0.3884
 5568SOL    HW218146   0.763   2.694   7.375  1.9554 -0.5404  1.3946
 5569SOL     OW18147   6.207   7.396   9.355 -0.1432 -0.2101 -0.8141
 5569SOL    HW118148   6.175   7.477   9.316  0.7306 -0.8919 -3.1051
 5569SOL    HW218149   6.301   7.397   9.339 -0.3119 -2.3768 -2.3603
 5570SOL     OW18150   3.289   6.555   1.119 -0.2676 -0.3887 -0.6106
 5570SOL    HW118151   3.326   6.626   1.066 -0.4078 -0.6880 -1.1092
 5570SOL    HW218152   3.365   6.505   1.148  0.0245  1.0578  1.3703
 5571SOL     OW18153   0.110   1.452   0.023 -0.3682  0.4760 -0.2321
 5571SOL    HW118154   0.064   1.484   0.101 -1.3079  0.4177 -0.7475
 5571SOL    HW218155   0.159   1.528  -0.008 -1.1212  0.9167 -0.3885
 5572SOL     OW18156   1.008   6.247   6.792 -0.4644 -0.1737  0.6895
 5572SOL    HW118157   1.028   6.182   6.725 -1.6969  0.2296 -0.0929
 5572SOL    HW218158   1.093   6.287   6.813 -0.1178  0.0122 -0.9603
 5573SOL     OW18159   5.535   6.236  11.694  0.1072 -0.4597 -0.6126
 5573SOL    HW118160   5.460   6.201  11.742  1.6629 -2.2644  0.6740
 5573SOL    HW218161   5.610   6.218  11.751  1.5843  0.8768 -2.0431
 5574SOL     OW18162   0.713   0.822   1.126 -0.5819 -0.2030 -0.0664
 5574SOL    HW118163   0.746   0.853   1.042 -0.0735 -0.1031  0.1680
 5574SOL    HW218164   0.757   0.877   1.191 -0.4245 -0.7612  0.3055
 5575SOL     OW18165   3.753   5.301  11.885  0.4344 -0.1714  0.6237
 5575SOL    HW118166   3.716   5.380  11.926  0.3095 -0.6248  1.4071
 5575SOL    HW218167   3.842   5.296  11.922  0.4137 -0.4377  0.6354
 5576SOL     OW18168   1.335   4.752   4.238 -0.0904  0.5162 -0.2533
 5576SOL    HW118169   1.305   4.723   4.324 -1.1135 -0.8841 -1.0305
 5576SOL    HW218170   1.329   4.673   4.184  0.3887  1.4059 -1.6368
 5577SOL     OW18171   7.256   3.077   1.241  0.1040  0.4372 -0.4924
 5577SOL    HW118172   7.183   3.021   1.214  0.0618 -0.4554  1.3512
 5577SOL    HW218173   7.217   3.164   1.250 -1.1753 -0.2903  1.9210
 5578SOL     OW18174   5.214   5.681  10.778  0.0554  0.0360  0.2309
 5578SOL    HW118175   5.200   5.667  10.684 -1.2732 -0.4376  0.4838
 5578SOL    HW218176   5.203   5.776  10.790  0.0591  0.0738 -0.0513
 5579SOL     OW18177   4.379   1.767   0.195  0.0203  0.4448  0.0924
 5579SOL    HW118178   4.311   1.720   0.147  0.8191 -1.1784  0.4772
 5579SOL    HW218179   4.368   1.739   0.286  0.5005  1.0402  0.3447
 5580SOL     OW18180   2.407   5.932   9.426 -0.6360 -0.4860  0.0895
 5580SOL    HW118181   2.472   5.876   9.383 -0.5246 -0.0023 -0.3881
 5580SOL    HW218182   2.373   5.987   9.355 -1.6957 -0.8528  0.3000
 5581SOL     OW18183   6.301   3.853   5.417  0.1676 -0.2907 -0.2167
 5581SOL    HW118184   6.378   3.890   5.461 -0.4594  0.1913  0.5026
 5581SOL    HW218185   6.226   3.889   5.465 -0.5055 -1.0191 -0.6867
 5582SOL     OW18186   6.591   7.249   1.820  0.1297 -0.0794  0.1220
 5582SOL    HW118187   6.610   7.306   1.895 -0.8145  1.0616 -0.4672
 5582SOL    HW218188   6.624   7.163   1.847  1.5487  0.6986  1.0740
 5583SOL     OW18189   4.339   7.383  12.387 -0.1509  0.1085  0.0608
 5583SOL    HW118190   4.413   7.368  12.328 -1.3802  0.9859 -1.8127
 5583SOL    HW218191   4.317   7.297  12.422  1.7983 -0.1473  0.7484
 5584SOL     OW18192   1.771   2.100   2.861 -0.0514  0.3495 -0.0935
 5584SOL    HW118193   1.794   2.023   2.913  0.5596  0.7563  0.2377
 5584SOL    HW218194   1.803   2.175   2.912 -0.6702  0.8301 -0.3969
 5585SOL     OW18195   3.638   7.006   9.462  0.4743  0.1332 -0.4075
 5585SOL    HW118196   3.568   6.979   9.402  0.2061 -1.1272  0.4296
 5585SOL    HW218197   3.646   7.100   9.449 -1.7946  0.4152 -0.1360
 5586SOL     OW18198   2.952   1.289   1.800  0.6907  0.3998 -0.2825
 5586SOL    HW118199   2.868   1.260   1.836 -0.4538  1.8199 -1.6733
 5586SOL    HW218200   2.961   1.240   1.718  0.8131  0.8350 -0.5328
 5587SOL     OW18201   1.602   2.800   0.151 -0.4868 -0.0656  0.0719
 5587SOL    HW118202   1.657   2.757   0.086  0.7941 -2.2317  2.3887
 5587SOL    HW218203   1.526   2.830   0.102  0.8610 -0.6548 -2.5575
 5588SOL     OW18204   6.385   1.609   4.220 -0.3554  0.0966  0.1726
 5588SOL    HW118205   6.356   1.624   4.130 -0.1974  0.7263  0.2194
 5588SOL    HW218206   6.474   1.645   4.223 -0.1051 -0.5334  0.4010
 5589SOL     OW18207   7.635   4.457   8.349 -0.4415  0.2270 -0.1243
 5589SOL    HW118208   7.628   4.362   8.359 -2.1810  0.3028 -0.2668
 5589SOL    HW218209   7.567   4.492   8.406 -0.2295  1.3693 -0.5377
 5590SOL     OW18210   5.384   2.365  11.293  0.1434 -0.6371 -0.1920
 5590SOL    HW118211   5.454   2.328  11.240  0.1179 -0.9620  0.0004
 5590SOL    HW218212   5.331   2.416  11.231  1.7735  1.4364  0.0231
 5591SOL     OW18213   2.132   6.765   9.891  0.6623  0.0490  0.5290
 5591SOL    HW118214   2.188   6.717   9.831 -0.0458  1.2356 -1.1485
 5591SOL    HW218215   2.056   6.791   9.839 -0.2619  0.6498  2.0818
 5592SOL     OW18216   1.318   3.007   8.296 -0.1787  0.3580 -0.1107
 5592SOL    HW118217   1.247   2.963   8.344 -0.6217  0.5087 -0.6196
 5592SOL    HW218218   1.361   3.061   8.363 -0.6238  0.3665  0.1748
 5593SOL     OW18219   1.003   3.393   8.155  0.4234  0.0804 -0.1267
 5593SOL    HW118220   0.969   3.310   8.190  0.9560 -0.4384 -0.8155
 5593SOL    HW218221   0.954   3.407   8.074 -0.7683  1.2511  0.7503
 5594SOL     OW18222   7.081   7.385   0.748 -0.3825 -0.5395 -0.5411
 5594SOL    HW118223   6.996   7.343   0.758  0.2137 -1.4175  1.4408
 5594SOL    HW218224   7.088   7.442   0.825  0.1819  0.7577 -1.5158
 5595SOL     OW18225   3.739   2.226   0.261 -0.2507 -1.0086 -0.5017
 5595SOL    HW118226   3.754   2.178   0.342  1.2966  0.9224  0.4446
 5595SOL    HW218227   3.823   2.221   0.215  0.5151  1.9171  0.3320
 5596SOL     OW18228   7.295   5.703  10.731  0.0056  0.0319  0.1180
 5596SOL    HW118229   7.374   5.662  10.695 -0.0902  1.2803 -1.6618
 5596SOL    HW218230   7.328   5.767  10.794  0.5555  1.4384 -1.5276
 5597SOL     OW18231   6.976   3.237   8.327 -0.3586 -0.2906  0.0735
 5597SOL    HW118232   6.968   3.311   8.266  0.7116 -0.6510 -0.5169
 5597SOL    HW218233   6.896   3.186   8.313  0.8326 -1.6072 -2.7189
 5598SOL     OW18234   0.938   3.864   2.857 -0.3214  0.0290 -0.3122
 5598SOL    HW118235   0.925   3.958   2.872  0.9949  0.0996  0.6048
 5598SOL    HW218236   1.024   3.857   2.816 -0.4359 -0.7750 -0.4448
 5599SOL     OW18237   0.875   5.470   7.809  0.0842  0.1442  0.0725
 5599SOL    HW118238   0.814   5.544   7.806  1.7220  1.5289 -1.8074
 5599SOL    HW218239   0.832   5.402   7.756 -0.3649  0.6459 -0.2142
 5600SOL     OW18240   5.984   1.946   6.649 -0.0119  0.4682 -0.0305
 5600SOL    HW118241   5.915   1.879   6.653 -0.1059  0.5835  0.3078
 5600SOL    HW218242   6.058   1.907   6.695  0.1995  0.2895 -0.5136
 5601SOL     OW18243   3.794   4.996   0.771  0.0327  0.5111  0.1646
 5601SOL    HW118244   3.830   4.929   0.829 -0.2394 -0.0387 -0.3032
 5601SOL    HW218245   3.716   4.956   0.734  0.4481  0.6994 -0.9318
 5602SOL     OW18246   2.480   1.656   7.523  0.1540  0.4773  0.2477
 5602SOL    HW118247   2.476   1.590   7.593  0.3432  0.6379  0.4134
 5602SOL    HW218248   2.566   1.642   7.482 -0.1331  0.1022 -0.2355
 5603SOL     OW18249   4.028   4.932   2.108 -0.4330  0.6782  0.1675
 5603SOL    HW118250   4.096   4.972   2.162 -0.8940  1.1151  0.4346
 5603SOL    HW218251   3.981   4.873   2.167  0.1104 -0.1086 -0.1742
 5604SOL     OW18252   5.181   4.661   7.339 -0.3957 -0.0341 -0.1805
 5604SOL    HW118253   5.087   4.649   7.322 -0.1475  0.3004 -2.0622
 5604SOL    HW218254   5.192   4.637   7.431 -2.1782 -0.9397 -0.1468
 5605SOL     OW18255   3.722   2.505   4.758  0.1419  0.2109  0.1060
 5605SOL    HW118256   3.798   2.563   4.754  0.9293 -0.7900  0.0674
 5605SOL    HW218257   3.731   2.449   4.681 -0.4498 -0.1472  0.2938
 5606SOL     OW18258   5.308   7.252   6.331 -0.8388 -0.7175 -0.4670
 5606SOL    HW118259   5.353   7.190   6.274 -0.3137 -0.5994 -0.1894
 5606SOL    HW218260   5.337   7.338   6.302  0.8304 -0.7004  1.0837
 5607SOL     OW18261   5.404   2.901   1.988 -0.2640  0.7508  0.3433
 5607SOL    HW118262   5.438   2.988   2.010  0.8421  0.2350  0.7291
 5607SOL    HW218263   5.462   2.840   2.034 -0.4818 -0.2207 -0.6420
 5608SOL     OW18264   6.541   7.373   0.080 -0.3515 -0.0987 -0.0379
 5608SOL    HW118265   6.512   7.454   0.039  1.4093  1.0078  0.7752
 5608SOL    HW218266   6.577   7.400   0.164  1.9084 -1.4546 -0.4801
 5609SOL     OW18267   7.762   5.104   5.309  0.2531  0.1108  0.3037
 5609SOL    HW118268   7.832   5.150   5.355  0.2078  0.5293 -0.0344
 5609SOL    HW218269   7.712   5.174   5.266 -0.4602 -0.1704  0.6587
 5610SOL     OW18270   7.461   4.961   3.512 -0.4289  0.3651 -0.3473
 5610SOL    HW118271   7.427   4.939   3.426  0.4673  0.6170 -0.7841
 5610SOL    HW218272   7.425   4.894   3.570 -2.3104  1.0871 -0.6056
 5611SOL     OW18273   1.802   0.338   2.279 -0.4407 -0.3747 -0.8332
 5611SOL    HW118274   1.803   0.429   2.250 -0.5507 -0.2363 -0.4118
 5611SOL    HW218275   1.893   0.321   2.304 -0.1762 -0.7321 -1.9569
 5612SOL     OW18276   6.337   6.515   3.868 -0.6438 -0.5581  0.3933
 5612SOL    HW118277   6.407   6.551   3.922 -2.3714  1.1056  1.6471
 5612SOL    HW218278   6.272   6.585   3.863 -1.9191 -1.7907 -1.2997
 5613SOL     OW18279   5.256   0.169   4.329 -0.1342  0.4732 -0.5337
 5613SOL    HW118280   5.349   0.146   4.338 -0.2955 -0.6987 -1.5111
 5613SOL    HW218281   5.211   0.084   4.329 -1.1275  0.9885 -0.8517
 5614SOL     OW18282   2.645   2.733  10.990 -0.0038  0.3383 -0.3778
 5614SOL    HW118283   2.694   2.716  11.070 -2.1668  0.7391  1.0919
 5614SOL    HW218284   2.711   2.765  10.928  1.5352  1.1562  1.5884
 5615SOL     OW18285   0.125   1.964  11.892 -0.0001 -0.2688 -0.3318
 5615SOL    HW118286   0.057   1.903  11.865  1.4178 -2.1530  0.1283
 5615SOL    HW218287   0.204   1.934  11.846  1.1006  0.2037  1.1392
 5616SOL     OW18288   1.946   7.187   9.192  0.3188 -0.0483 -0.4095
 5616SOL    HW118289   1.960   7.102   9.232  0.9371  1.7436  3.6852
 5616SOL    HW218290   1.859   7.214   9.221  0.7203  1.3016 -0.3689
 5617SOL     OW18291   7.118   7.313   5.098 -0.2037 -0.3200 -0.0108
 5617SOL    HW118292   7.118   7.225   5.059  0.7212 -0.0751 -0.6033
 5617SOL    HW218293   7.206   7.347   5.080  0.0039  0.1100  1.6216
 5618SOL     OW18294   1.018   2.681   1.567 -0.9289  0.2392  0.0943
 5618SOL    HW118295   1.060   2.626   1.633 -0.6800  0.7718  0.3856
 5618SOL    HW218296   0.972   2.619   1.510 -0.3645 -0.2953  0.2096
 5619SOL     OW18297   7.843   4.323   7.972 -0.6305  0.3629  0.1258
 5619SOL    HW118298   7.858   4.278   8.055 -1.0623  0.0618  0.0450
 5619SOL    HW218299   7.748   4.321   7.961 -0.5891  0.5735 -0.2803
 5620SOL     OW18300   1.337   4.529   8.123  0.0069 -0.2529  0.7305
 5620SOL    HW118301   1.407   4.481   8.080 -0.6807 -1.1264  0.5625
 5620SOL    HW218302   1.347   4.619   8.092  1.5146 -0.1909  1.3104
 5621SOL     OW18303   6.628   1.882  10.540  0.2334 -0.2053 -0.9148
 5621SOL    HW118304   6.607   1.813  10.603  1.3919  0.8739  0.7510
 5621SOL    HW218305   6.718   1.864  10.513  0.2217  0.1348 -1.1945
 5622SOL     OW18306   1.149   3.409   0.928  0.2930  0.7222 -0.5959
 5622SOL    HW118307   1.193   3.337   0.973  0.1969  1.1859  0.2563
 5622SOL    HW218308   1.078   3.435   0.988  0.0612  1.2441 -1.0890
 5623SOL     OW18309   2.853   7.194   4.328  0.0631 -0.9424 -0.2821
 5623SOL    HW118310   2.877   7.160   4.242  2.1488 -1.5648  0.4875
 5623SOL    HW218311   2.921   7.162   4.387  0.3999  1.9478  1.0812
 5624SOL     OW18312   5.479   0.251   5.867  0.1805  0.2113  0.4274
 5624SOL    HW118313   5.429   0.290   5.796  0.6780 -0.6264 -0.4200
 5624SOL    HW218314   5.543   0.318   5.891  1.4955 -0.2702 -1.4895
 5625SOL     OW18315   6.718   7.514   1.754  0.0493 -0.4055 -0.0090
 5625SOL    HW118316   6.666   7.448   1.708  0.6472  0.0879 -1.4540
 5625SOL    HW218317   6.680   7.597   1.728  1.1518 -0.0644 -0.6087
 5626SOL     OW18318   2.526   4.895  10.025 -0.2525 -0.2209 -0.5479
 5626SOL    HW118319   2.528   4.832  10.097 -1.0120 -1.6599 -1.7338
 5626SOL    HW218320   2.614   4.934  10.025  0.7157 -2.2434 -0.5765
 5627SOL     OW18321   3.364   1.041   4.995  0.0657 -0.3471  0.1272
 5627SOL    HW118322   3.317   0.983   5.055 -0.8936 -1.1839 -1.3883
 5627SOL    HW218323   3.297   1.076   4.937  1.1215 -0.5976 -1.3053
 5628SOL     OW18324   6.561   4.347   4.771  0.1821  0.4145  0.3408
 5628SOL    HW118325   6.547   4.416   4.837  0.5015  1.8681 -1.0594
 5628SOL    HW218326   6.480   4.346   4.720  1.0026  1.3801 -1.0550
 5629SOL     OW18327   7.420   3.700   6.241  0.0542 -0.3445  0.1804
 5629SOL    HW118328   7.515   3.690   6.231 -0.0403 -0.2366 -0.9460
 5629SOL    HW218329   7.410   3.783   6.287  0.5220 -0.7191  0.9816
 5630SOL     OW18330   1.807   0.208   1.061  0.2831  0.0971  0.0192
 5630SOL    HW118331   1.899   0.215   1.037  0.2800  0.7578  0.1909
 5630SOL    HW218332   1.772   0.141   1.003  0.4929  0.9788 -1.1452
 5631SOL     OW18333   7.718   2.577   7.270 -0.0075 -0.0310 -0.5753
 5631SOL    HW118334   7.704   2.589   7.176 -0.3349 -0.7661 -0.6288
 5631SOL    HW218335   7.764   2.494   7.277  1.6414  0.8806 -0.1919
 5632SOL     OW18336   0.765   4.308  11.832  0.4504 -0.5894 -0.0793
 5632SOL    HW118337   0.746   4.273  11.745  0.4064 -0.7332 -0.0112
 5632SOL    HW218338   0.852   4.275  11.853  1.1057  0.6686 -0.7030
 5633SOL     OW18339   2.972   1.658   1.228  0.6107  0.3193  0.0944
 5633SOL    HW118340   3.038   1.691   1.289 -0.0538  0.3345  0.8160
 5633SOL    HW218341   2.972   1.721   1.156  0.5297  0.9786  0.6685
 5634SOL     OW18342   7.452   4.442   2.273 -0.7103 -0.4854 -0.1874
 5634SOL    HW118343   7.542   4.416   2.252 -0.4317 -0.6474  1.1146
 5634SOL    HW218344   7.449   4.441   2.368 -2.3282 -1.2663 -0.2160
 5635SOL     OW18345   3.715   4.017   3.648  0.3211 -0.3019  0.8095
 5635SOL    HW118346   3.624   3.988   3.644 -0.1539  1.1726 -1.4292
 5635SOL    HW218347   3.712   4.100   3.696  0.2870  0.1947 -0.0138
 5636SOL     OW18348   6.444   7.054   1.058 -0.1845  0.4083  0.2630
 5636SOL    HW118349   6.354   7.066   1.028 -1.0549 -1.8657  1.7282
 5636SOL    HW218350   6.438   6.989   1.128  2.7376 -0.6981 -0.3671
 5637SOL     OW18351   6.659   7.633  11.299 -0.6790  0.0866 -0.1300
 5637SOL    HW118352   6.619   7.583  11.370  0.1884  0.1723  0.4186
 5637SOL    HW218353   6.720   7.692  11.341  0.0267 -0.0245 -0.9570
 5638SOL     OW18354   5.562   3.338  10.723 -0.3125  0.3638  0.2253
 5638SOL    HW118355   5.475   3.323  10.684 -0.1503 -0.0423  0.0096
 5638SOL    HW218356   5.547   3.335  10.817  0.0306 -3.4821  0.3015
 5639SOL     OW18357   0.068   7.621   3.482 -0.0005 -0.6185 -0.1492
 5639SOL    HW118358   0.028   7.703   3.455  1.9087  1.6356  3.1879
 5639SOL    HW218359   0.049   7.614   3.575  1.1483 -3.2393 -0.0124
 5640SOL     OW18360   7.808   1.041   9.889 -0.1697  0.3219  0.3508
 5640SOL    HW118361   7.848   0.991   9.818 -0.1816  0.3570  0.3196
 5640SOL    HW218362   7.881   1.084   9.933 -0.1524  0.2271  0.4169
 5641SOL     OW18363   1.157   0.801   8.811  0.1425 -0.1424  0.1178
 5641SOL    HW118364   1.101   0.749   8.752 -0.5488  2.5045 -1.7245
 5641SOL    HW218365   1.126   0.778   8.899 -0.0363 -2.8571 -0.5525
 5642SOL     OW18366   3.599   4.452   7.219 -0.4814  0.4694 -0.3344
 5642SOL    HW118367   3.669   4.511   7.191 -1.5345  2.3804  0.8272
 5642SOL    HW218368   3.522   4.508   7.223 -1.4334 -0.9009  1.2701
 5643SOL     OW18369   1.131   7.682   3.418 -0.3577 -0.2377  0.1193
 5643SOL    HW118370   1.143   7.693   3.324  0.9282  2.0632  0.4653
 5643SOL    HW218371   1.036   7.678   3.430 -0.5388 -0.4004 -1.2605
 5644SOL     OW18372   6.355   2.542  11.560 -0.2077  0.1637  0.9056
 5644SOL    HW118373   6.388   2.618  11.608  0.3391  0.6448 -0.1934
 5644SOL    HW218374   6.337   2.575  11.472 -0.3053 -0.9079  0.5069
 5645SOL     OW18375   6.871   1.629  10.762 -0.4298  0.5676 -0.3821
 5645SOL    HW118376   6.884   1.630  10.857 -0.6391  0.8089 -0.3542
 5645SOL    HW218377   6.909   1.712  10.732 -0.5037  0.5628 -0.4891
 5646SOL     OW18378   4.064   2.677   1.548 -0.4484 -0.3412  0.5206
 5646SOL    HW118379   3.972   2.686   1.522 -0.7163 -1.7254  0.8686
 5646SOL    HW218380   4.113   2.690   1.468 -1.0223 -0.6537  0.1076
 5647SOL     OW18381   4.315   2.766  12.414 -0.5183  0.0400 -0.1268
 5647SOL    HW118382   4.306   2.715  12.494 -0.7413  1.9680  1.1616
 5647SOL    HW218383   4.392   2.730  12.370  0.9823  0.3272  2.1085
 5648SOL     OW18384   1.950   2.142   5.916 -0.0106 -0.4310  1.1741
 5648SOL    HW118385   1.997   2.195   5.980 -0.1290  0.2263  0.7307
 5648SOL    HW218386   1.868   2.120   5.959 -0.7851  1.3410  0.7039
 5649SOL     OW18387   2.803   1.801   8.571  0.1922  0.1477  0.1073
 5649SOL    HW118388   2.712   1.812   8.598  0.2033  0.7239 -0.0958
 5649SOL    HW218389   2.802   1.723   8.515 -0.7223  1.8857 -2.4331
 5650SOL     OW18390   5.411   7.214   0.953  0.0424  0.0164  0.0592
 5650SOL    HW118391   5.406   7.262   1.036  3.9229  0.9475 -0.0467
 5650SOL    HW218392   5.422   7.123   0.980 -0.9123  0.0241  0.4931
 5651SOL     OW18393   5.934   3.389   6.870  0.6543  0.1551 -0.3459
 5651SOL    HW118394   5.918   3.481   6.853  1.5601  0.2538 -0.7120
 5651SOL    HW218395   6.008   3.388   6.930 -0.0287 -0.3118  0.5091
 5652SOL     OW18396   5.127   7.177   7.546 -0.5407 -0.0078  0.2920
 5652SOL    HW118397   5.203   7.172   7.487 -0.1962  0.6453  0.6684
 5652SOL    HW218398   5.111   7.270   7.556 -2.4306 -0.1185 -1.0684
 5653SOL     OW18399   4.436   0.397   4.372 -0.2961 -0.2019 -0.0476
 5653SOL    HW118400   4.406   0.487   4.357  1.1210  0.1234 -1.2335
 5653SOL    HW218401   4.468   0.397   4.462  3.0336  1.6019 -1.0495
 5654SOL     OW18402   6.650   0.193  11.773  0.4121  0.0075 -0.0442
 5654SOL    HW118403   6.700   0.268  11.804  0.0063 -0.0098  0.6730
 5654SOL    HW218404   6.570   0.231  11.736  0.1720 -0.0750  0.3894
 5655SOL     OW18405   0.409   0.225   5.371  0.1708  0.3389 -0.3021
 5655SOL    HW118406   0.336   0.171   5.341  0.0403 -0.4029  1.2351
 5655SOL    HW218407   0.448   0.260   5.291  1.4716 -3.5797 -1.6136
 5656SOL     OW18408   7.740   2.789   6.663  0.6152 -0.1406 -0.0623
 5656SOL    HW118409   7.698   2.860   6.710 -0.4898 -0.5125 -0.4490
 5656SOL    HW218410   7.820   2.770   6.713  0.0820  0.2636  0.9639
 5657SOL     OW18411   4.572   7.051   2.992  0.1566  0.2762  0.1920
 5657SOL    HW118412   4.619   6.969   2.977 -0.5055 -0.0919  0.1166
 5657SOL    HW218413   4.569   7.093   2.906  1.6006  0.9895  0.4609
 5658SOL     OW18414   1.474   2.314   7.411  0.5818 -0.1912 -0.4092
 5658SOL    HW118415   1.566   2.340   7.405  1.7300 -3.5472  0.5216
 5658SOL    HW218416   1.459   2.262   7.332 -2.1573  4.1598 -3.1611
 5659SOL     OW18417   7.209   7.244   6.462  0.2556  0.0729  0.1379
 5659SOL    HW118418   7.244   7.333   6.470  1.4164 -0.4775  2.3070
 5659SOL    HW218419   7.132   7.244   6.519  0.5724 -0.4298  0.5726
 5660SOL     OW18420   4.957   2.602  12.250  0.1632  0.3795  0.3593
 5660SOL    HW118421   5.025   2.537  12.233  1.0477  1.3672  0.0270
 5660SOL    HW218422   4.916   2.573  12.332  1.0537 -0.1801  0.6158
 5661SOL     OW18423   3.927   6.048   7.591  0.3961  0.0383 -0.1819
 5661SOL    HW118424   4.000   6.093   7.550  0.7612 -0.3847 -0.0060
 5661SOL    HW218425   3.949   6.046   7.684  1.3697 -2.2329 -0.3958
 5662SOL     OW18426   5.649   5.204   8.088  0.9874 -0.5676  0.0034
 5662SOL    HW118427   5.681   5.123   8.047  2.8176 -0.2741  0.7598
 5662SOL    HW218428   5.621   5.177   8.176 -0.6613 -0.7745 -0.5633
 5663SOL     OW18429   2.160   7.424   0.146 -0.6793  0.0686 -0.5299
 5663SOL    HW118430   2.166   7.504   0.198 -2.4195 -1.3361  2.0250
 5663SOL    HW218431   2.102   7.447   0.073  1.0512  1.8237 -1.4324
 5664SOL     OW18432   5.835   3.210   7.556  0.2278  0.2252  0.0396
 5664SOL    HW118433   5.747   3.221   7.593 -0.2218  1.0659 -1.1903
 5664SOL    HW218434   5.820   3.212   7.461  1.4450 -0.8271 -0.1858
 5665SOL     OW18435   2.044   6.250   8.925 -0.1284  0.1352 -0.0666
 5665SOL    HW118436   2.045   6.256   8.829 -0.6497  0.9132 -0.0311
 5665SOL    HW218437   2.052   6.340   8.955 -2.3129  0.1740  0.5880
 5666SOL     OW18438   6.010   3.225  11.067  0.7911  0.2206  0.3656
 5666SOL    HW118439   6.062   3.301  11.093  0.4246  1.3690 -1.9959
 5666SOL    HW218440   6.015   3.224  10.972 -0.5644 -1.7899  0.2453
 5667SOL     OW18441   0.862   6.317   9.861  0.1750  0.0076 -0.6231
 5667SOL    HW118442   0.777   6.289   9.896 -0.1043  1.0723 -0.3995
 5667SOL    HW218443   0.925   6.291   9.927  0.0193 -0.7281 -0.7554
 5668SOL     OW18444   7.940   6.633   3.517  0.0295  0.3336 -0.1576
 5668SOL    HW118445   7.854   6.675   3.530 -0.6553 -1.5601  2.2022
 5668SOL    HW218446   7.920   6.555   3.465  0.1793 -0.3856  0.8295
 5669SOL     OW18447   4.874   7.254   0.039  0.0360 -0.0975 -0.4062
 5669SOL    HW118448   4.921   7.271   0.121  0.2514 -1.9045 -0.1176
 5669SOL    HW218449   4.897   7.328  -0.017  0.2695  0.9381  0.9814
 5670SOL     OW18450   4.769   4.013   0.948 -0.0118 -0.2705  0.8463
 5670SOL    HW118451   4.858   4.035   0.923 -0.9605  2.0449 -0.8182
 5670SOL    HW218452   4.763   3.918   0.933  2.4606 -0.7485  2.2723
 5671SOL     OW18453   5.280   2.671   5.898  0.2177  0.9101  0.4471
 5671SOL    HW118454   5.236   2.635   5.974  1.9318  0.5086  1.3014
 5671SOL    HW218455   5.288   2.598   5.837 -2.6513  1.5943 -0.9595
 5672SOL     OW18456   3.483   3.032   6.309  0.4208  0.0875  0.5668
 5672SOL    HW118457   3.404   2.998   6.267  0.2865  1.5348 -0.4186
 5672SOL    HW218458   3.475   3.004   6.400  0.6312 -2.9711 -0.2314
 5673SOL     OW18459   7.317   1.072   4.689  0.2029  0.6520 -0.2083
 5673SOL    HW118460   7.296   1.152   4.737  0.4611  0.5759  0.0328
 5673SOL    HW218461   7.315   1.098   4.597  1.2630  1.1829 -0.0978
 5674SOL     OW18462   5.348   7.847   5.581  0.3261 -0.5310 -0.1268
 5674SOL    HW118463   5.441   7.863   5.564  0.4580 -1.1729 -0.0248
 5674SOL    HW218464   5.343   7.753   5.599  0.0394 -0.1115  2.2922
 5675SOL     OW18465   5.416   1.114  10.790 -0.4309 -0.6417  0.3897
 5675SOL    HW118466   5.412   1.131  10.695 -0.9048  0.5454  0.5980
 5675SOL    HW218467   5.405   1.020  10.798  0.7018 -0.9113 -0.7970
 5676SOL     OW18468   4.376   5.476   0.651  0.0790 -0.1855 -0.1271
 5676SOL    HW118469   4.292   5.435   0.633 -1.3792  1.3932  2.4653
 5676SOL    HW218470   4.435   5.402   0.667 -1.5464 -1.3624  0.7815
 5677SOL     OW18471   4.971   1.460   3.966  0.0044  0.1279 -0.4960
 5677SOL    HW118472   5.032   1.407   4.017 -0.7703  0.0993  0.4236
 5677SOL    HW218473   4.919   1.507   4.031  3.3638  5.4596 -1.0324
 5678SOL     OW18474   0.749   1.164   1.785 -0.4639  0.3044 -0.6116
 5678SOL    HW118475   0.687   1.177   1.857  0.5769  2.3469 -0.0147
 5678SOL    HW218476   0.800   1.087   1.810 -0.3508  0.7760  0.6592
 5679SOL     OW18477   1.699   2.452   1.691 -0.2039  0.2005 -0.1861
 5679SOL    HW118478   1.682   2.359   1.673  0.0861 -0.2531  1.6693
 5679SOL    HW218479   1.619   2.496   1.663 -1.1896 -0.8860  0.7604
 5680SOL     OW18480   6.068   0.305   3.016 -0.6097  0.0642 -0.3207
 5680SOL    HW118481   6.062   0.271   2.927 -2.3867 -0.2234 -0.1313
 5680SOL    HW218482   6.065   0.400   3.006 -1.6729  0.0179 -0.5433
 5681SOL     OW18483   3.551   5.621   2.048 -0.1025  1.1991  0.2887
 5681SOL    HW118484   3.505   5.581   2.122  0.6213 -1.1934 -0.4754
 5681SOL    HW218485   3.517   5.576   1.971  0.8695  1.9826 -0.6290
 5682SOL     OW18486   3.003   2.044   2.210  0.1533 -0.0084  0.3684
 5682SOL    HW118487   3.069   2.039   2.141 -1.2931  1.2574 -1.1976
 5682SOL    HW218488   2.979   2.137   2.213 -1.1018 -0.3432  1.3097
 5683SOL     OW18489   7.282   6.124  11.094  0.1701 -0.0311  0.0769
 5683SOL    HW118490   7.239   6.155  11.174 -2.1632  0.5591 -1.2932
 5683SOL    HW218491   7.282   6.200  11.035 -0.0702 -0.9727 -1.1886
 5684SOL     OW18492   0.733   2.899  11.294  0.2923  0.2298 -0.4726
 5684SOL    HW118493   0.721   2.818  11.343 -1.3869 -0.8793 -2.5099
 5684SOL    HW218494   0.740   2.967  11.361 -0.5816 -1.3083  1.2819
 5685SOL     OW18495   6.292   3.005  12.438  0.3849  0.1105 -0.1727
 5685SOL    HW118496   6.219   2.979  12.493 -0.4507  0.4913 -1.0645
 5685SOL    HW218497   6.289   2.944  12.364  2.2886 -1.2334  0.7912
 5686SOL     OW18498   2.699   1.149   7.607 -0.3166 -0.0969  0.1830
 5686SOL    HW118499   2.650   1.102   7.540  2.1152  0.9390 -2.5446
 5686SOL    HW218500   2.788   1.153   7.573  1.0003  0.8674  3.3561
 5687SOL     OW18501   4.514   3.207   5.175  0.2644 -0.2547 -0.1004
 5687SOL    HW118502   4.429   3.219   5.217  0.3849  1.7418 -0.3311
 5687SOL    HW218503   4.500   3.238   5.085  0.5666 -2.4602 -0.9743
 5688SOL     OW18504   4.319   5.336   2.145  0.5063 -0.7113  0.6598
 5688SOL    HW118505   4.233   5.303   2.118  0.8647 -1.3274  0.2386
 5688SOL    HW218506   4.322   5.426   2.111  0.8787 -1.4098 -1.3229
 5689SOL     OW18507   6.253   3.750   9.175 -0.0459  0.0065  0.1699
 5689SOL    HW118508   6.193   3.823   9.163 -0.0070  0.0863  0.4495
 5689SOL    HW218509   6.340   3.787   9.161 -0.0355 -0.0196  0.1643
 5690SOL     OW18510   3.373   4.884   8.385 -0.2677  0.3803  0.3412
 5690SOL    HW118511   3.359   4.976   8.363  1.0008  0.4505 -0.2628
 5690SOL    HW218512   3.420   4.849   8.310  0.8968 -0.3037  1.3615
 5691SOL     OW18513   1.167   7.946   4.954  0.8461 -0.1901  0.0854
 5691SOL    HW118514   1.238   7.996   4.993  2.2222 -1.2688 -0.8722
 5691SOL    HW218515   1.176   7.962   4.860 -0.6651  0.2187 -0.0165
 5692SOL     OW18516   0.479   6.325   8.414 -0.3577 -0.2107 -0.2327
 5692SOL    HW118517   0.431   6.353   8.337  0.6493  2.9764  0.1523
 5692SOL    HW218518   0.570   6.319   8.385  0.0600  1.1914  0.6662
 5693SOL     OW18519   4.337   0.400   9.005  0.5083  0.2524  0.0008
 5693SOL    HW118520   4.263   0.405   9.066  0.1258 -1.2176 -0.3215
 5693SOL    HW218521   4.408   0.363   9.057  0.6069  0.3486 -0.0662
 5694SOL     OW18522   0.175   1.822  11.023  0.0152 -0.0630 -0.0230
 5694SOL    HW118523   0.155   1.888  11.089  2.9816  0.2315  0.7161
 5694SOL    HW218524   0.265   1.840  10.998  0.2233 -2.5677 -1.3593
 5695SOL     OW18525   0.435   1.683   5.890  0.2909 -0.0346 -0.1045
 5695SOL    HW118526   0.359   1.741   5.891  0.5133  0.2795 -0.8038
 5695SOL    HW218527   0.398   1.595   5.880  0.0168  0.1169 -0.4417
 5696SOL     OW18528   0.143   5.093   7.549  0.6031 -0.5287 -0.6250
 5696SOL    HW118529   0.203   5.019   7.539 -0.6530 -1.6517 -0.1624
 5696SOL    HW218530   0.197   5.170   7.532  2.0472 -1.5217 -0.7284
 5697SOL     OW18531   4.288   4.068  10.276 -0.3533  0.0742  0.0588
 5697SOL    HW118532   4.224   4.138  10.284  0.0351  0.2569  1.9900
 5697SOL    HW218533   4.373   4.113  10.277 -0.1240 -0.3590  0.5149
 5698SOL     OW18534   7.807   0.640   9.078  0.0069  0.1177  0.4509
 5698SOL    HW118535   7.715   0.614   9.065  0.1129 -0.0772  0.0753
 5698SOL    HW218536   7.808   0.734   9.059  0.0971 -0.0946 -0.6794
 5699SOL     OW18537   0.234   2.104  12.266  0.1062 -0.4544  0.4536
 5699SOL    HW118538   0.249   2.041  12.195 -0.2612 -1.2782  1.0828
 5699SOL    HW218539   0.155   2.151  12.240  1.7125  1.5077 -1.2092
 5700SOL     OW18540   0.657   3.901   7.874  0.5697 -0.1735 -0.1813
 5700SOL    HW118541   0.746   3.867   7.884  0.7123  0.7061  2.6327
 5700SOL    HW218542   0.665   3.995   7.891 -1.1195 -0.4118  2.7248
 5701SOL     OW18543   2.654   2.139  10.340 -0.1437 -0.1319  0.1861
 5701SOL    HW118544   2.624   2.049  10.349  2.8386 -1.3716 -0.9985
 5701SOL    HW218545   2.661   2.153  10.246  0.7892  0.8229  0.3756
 5702SOL     OW18546   5.626   1.569   3.850  0.3265  0.1982  0.0467
 5702SOL    HW118547   5.608   1.487   3.803 -1.5210  0.4838  0.1555
 5702SOL    HW218548   5.572   1.563   3.929  1.1085  1.0135  0.6588
 5703SOL     OW18549   0.548   7.300   5.221 -0.5985  0.0288 -0.4280
 5703SOL    HW118550   0.544   7.261   5.134 -1.9165 -1.4378  0.2309
 5703SOL    HW218551   0.524   7.228   5.280 -2.4487  1.6702  0.9302
 5704SOL     OW18552   0.179   7.365   0.857  0.0096 -0.2025  0.0306
 5704SOL    HW118553   0.212   7.451   0.829 -0.0974 -0.2895 -0.3786
 5704SOL    HW218554   0.250   7.328   0.909  0.5737 -0.3792 -0.8343
 5705SOL     OW18555   3.908   4.011   1.849 -0.3911 -0.0309  0.0177
 5705SOL    HW118556   3.892   3.959   1.928  0.4402 -1.2392 -0.5835
 5705SOL    HW218557   3.997   3.988   1.822 -0.4144  0.8763 -0.8991
 5706SOL     OW18558   5.225   7.757   7.902  0.0548 -0.3981 -0.1422
 5706SOL    HW118559   5.267   7.832   7.944 -1.8441  1.0730 -0.7373
 5706SOL    HW218560   5.288   7.729   7.835  1.3596 -0.2233  0.9670
 5707SOL     OW18561   2.221   4.504   1.362  0.7246 -0.5027 -0.0892
 5707SOL    HW118562   2.173   4.574   1.406 -1.5436 -2.2279  0.3332
 5707SOL    HW218563   2.311   4.512   1.396  0.1056  1.0613  1.3068
 5708SOL     OW18564   1.152   0.220  11.664 -0.6401 -0.2322  0.4821
 5708SOL    HW118565   1.215   0.291  11.679 -0.2482 -0.6943  1.1267
 5708SOL    HW218566   1.077   0.262  11.623 -1.1440  0.8987  2.4249
 5709SOL     OW18567   4.283   5.866   5.593  0.2627 -0.4313 -0.4506
 5709SOL    HW118568   4.345   5.849   5.523 -0.2717  0.8668 -1.2712
 5709SOL    HW218569   4.197   5.860   5.551 -0.0332  1.9770 -0.3497
 5710SOL     OW18570   6.916   7.059   4.259 -0.0399  0.2045  0.2256
 5710SOL    HW118571   6.950   7.011   4.184 -2.1018 -1.2738  0.1398
 5710SOL    HW218572   6.854   7.121   4.221 -0.7659 -0.2492  0.6415
 5711SOL     OW18573   0.117   2.403   9.479 -1.0962 -0.2983  0.2200
 5711SOL    HW118574   0.202   2.358   9.478 -0.8372  0.0935  1.5858
 5711SOL    HW218575   0.054   2.336   9.456 -0.4258 -0.6222 -0.7240
 5712SOL     OW18576   4.767   2.696   7.923  0.4407  0.1215  0.1584
 5712SOL    HW118577   4.806   2.632   7.864  0.4837 -0.2200  0.5572
 5712SOL    HW218578   4.731   2.763   7.865 -1.3085 -1.1995 -0.3653
 5713SOL     OW18579   2.104   3.924   8.077 -0.3985 -0.0988  0.4749
 5713SOL    HW118580   2.093   3.846   8.131 -1.7905 -0.5734 -0.4341
 5713SOL    HW218581   2.022   3.972   8.088  0.6249  1.5384  1.4183
 5714SOL     OW18582   1.537   4.652  10.034  0.5128 -0.5097 -0.1296
 5714SOL    HW118583   1.543   4.595  10.111  0.9634 -0.2991 -0.0101
 5714SOL    HW218584   1.443   4.657  10.016  0.1971  1.0467  1.6234
 5715SOL     OW18585   5.259   7.196   6.685 -0.4410  0.3682 -0.0126
 5715SOL    HW118586   5.316   7.145   6.743  0.8078 -0.6632 -2.0204
 5715SOL    HW218587   5.298   7.185   6.598 -2.2680  1.7760 -1.0779
 5716SOL     OW18588   0.447   3.625   5.520 -0.4359 -0.8152  0.1514
 5716SOL    HW118589   0.531   3.669   5.527 -0.6464 -0.4374  0.3579
 5716SOL    HW218590   0.421   3.636   5.428 -0.4315 -0.6133  0.1746
 5717SOL     OW18591   3.679   5.569   5.624  0.1340 -0.0568 -0.1751
 5717SOL    HW118592   3.766   5.534   5.644  0.0062  0.1049  0.7306
 5717SOL    HW218593   3.682   5.659   5.659  0.0466  0.4099 -1.3464
 5718SOL     OW18594   5.241   0.695   8.010  0.4596 -0.2796 -0.0009
 5718SOL    HW118595   5.224   0.749   8.087  1.9642 -1.5367  1.2829
 5718SOL    HW218596   5.332   0.667   8.019  0.0073 -2.3021 -1.0467
 5719SOL     OW18597   4.832   0.105   7.085 -0.2598  0.5644  0.2515
 5719SOL    HW118598   4.760   0.048   7.060  0.4116 -0.2174  0.0420
 5719SOL    HW218599   4.813   0.188   7.042 -0.7076  0.1716 -0.3205
 5720SOL     OW18600   6.291   7.940   8.664 -0.6588 -0.3525  0.3981
 5720SOL    HW118601   6.315   7.899   8.581 -1.2331  0.1547 -0.0286
 5720SOL    HW218602   6.332   8.027   8.661 -0.3162 -0.4951  0.8410
 5721SOL     OW18603   2.632   1.671   3.512 -0.4997 -0.4245  0.0980
 5721SOL    HW118604   2.631   1.578   3.537 -1.7940 -0.8262 -1.3453
 5721SOL    HW218605   2.699   1.677   3.444 -1.6795 -0.7016 -1.1284
 5722SOL     OW18606   7.554   5.160   7.163  0.2092 -0.0107  0.2974
 5722SOL    HW118607   7.566   5.233   7.224  0.7274 -0.5300  0.8319
 5722SOL    HW218608   7.643   5.130   7.144 -0.0117 -0.7052  0.3351
 5723SOL     OW18609   4.979   6.854   2.088  0.6808  0.7611  0.2729
 5723SOL    HW118610   4.939   6.924   2.138 -1.1255  1.0138 -1.4008
 5723SOL    HW218611   4.984   6.888   1.999 -1.7216 -1.6797 -0.9432
 5724SOL     OW18612   3.344   0.414   0.331 -0.1191 -0.4372 -0.1246
 5724SOL    HW118613   3.258   0.448   0.306  0.4327  0.4404 -0.9328
 5724SOL    HW218614   3.327   0.356   0.405 -1.5426 -1.1998 -1.0061
 5725SOL     OW18615   4.149   0.265   5.157  0.1358  0.0849 -0.0613
 5725SOL    HW118616   4.102   0.305   5.084 -0.9044  0.6952  0.9026
 5725SOL    HW218617   4.101   0.185   5.176  0.8542 -0.4691 -0.5094
 5726SOL     OW18618   5.674   7.486   7.545  0.4984 -0.7306 -0.2899
 5726SOL    HW118619   5.747   7.536   7.581  0.7520 -0.4871 -1.1391
 5726SOL    HW218620   5.627   7.548   7.489  0.0697 -1.0900 -0.3361
 5727SOL     OW18621   6.833   0.010   3.760  0.1594 -0.2937  0.4675
 5727SOL    HW118622   6.763   0.003   3.694  1.4342 -1.0252 -0.8791
 5727SOL    HW218623   6.859   0.102   3.758  0.5169 -0.3979 -0.4587
 5728SOL     OW18624   2.459   7.019   1.345 -0.2247 -0.0471  0.2922
 5728SOL    HW118625   2.417   7.084   1.289 -0.1121  1.4505  1.8658
 5728SOL    HW218626   2.516   6.969   1.286  0.4652  1.9548 -0.7998
 5729SOL     OW18627   4.644   4.195  10.729 -0.1393 -0.2544  0.6974
 5729SOL    HW118628   4.672   4.287  10.734 -1.3532  0.2602 -0.8504
 5729SOL    HW218629   4.575   4.188  10.795 -0.5372  0.1766  0.3433
 5730SOL     OW18630   7.279   1.001   1.146  0.3953 -0.0914 -0.0863
 5730SOL    HW118631   7.322   1.086   1.134 -0.5065  0.5161  0.8278
 5730SOL    HW218632   7.299   0.952   1.066  3.5307 -0.1979  0.6229
 5731SOL     OW18633   3.929   6.030   7.982  0.2360  0.0483 -0.1306
 5731SOL    HW118634   3.840   6.065   7.977  0.2438  0.1301  0.3041
 5731SOL    HW218635   3.984   6.108   7.994  0.3901  0.0201 -0.6278
 5732SOL     OW18636   2.610   7.248   7.834 -0.0127 -0.3238  0.2411
 5732SOL    HW118637   2.602   7.335   7.874  0.6373  0.8669 -2.0169
 5732SOL    HW218638   2.520   7.220   7.817 -0.3014  1.9381 -2.8802
 5733SOL     OW18639   4.348   6.842   4.236 -0.7735  0.5383  0.1794
 5733SOL    HW118640   4.438   6.849   4.267 -1.1672  1.0440  1.2903
 5733SOL    HW218641   4.348   6.884   4.151  0.6349 -2.0618 -1.2113
 5734SOL     OW18642   7.560   5.701   9.494 -0.0527 -0.4010  0.4642
 5734SOL    HW118643   7.650   5.672   9.508  0.5326  1.3182  0.5265
 5734SOL    HW218644   7.530   5.649   9.420  0.7294 -1.5315  0.9126
 5735SOL     OW18645   4.228   0.886   6.569  0.0757 -0.4800 -0.5017
 5735SOL    HW118646   4.179   0.947   6.513 -0.5928 -0.7565 -0.2370
 5735SOL    HW218647   4.177   0.805   6.565  0.5374 -0.7854 -0.2343
 5736SOL     OW18648   4.014   3.085   4.913  0.5570  0.0608  0.3493
 5736SOL    HW118649   3.942   3.103   4.853 -0.3496  1.2096  1.6982
 5736SOL    HW218650   4.076   3.032   4.862 -1.1619 -0.8526 -0.8906
 5737SOL     OW18651   1.092   6.719   1.172  0.3111  0.4963 -0.0364
 5737SOL    HW118652   1.001   6.716   1.204  0.1526 -3.5815 -0.2341
 5737SOL    HW218653   1.140   6.765   1.241 -1.7013  1.6629  0.6718
 5738SOL     OW18654   7.225   3.840   4.081  0.4297 -0.3590 -0.8363
 5738SOL    HW118655   7.282   3.834   4.157 -0.6232  1.0279  0.1124
 5738SOL    HW218656   7.242   3.927   4.044 -0.6227 -0.1409 -0.8609
 5739SOL     OW18657   2.405   3.516  11.069 -0.3923  0.0382 -0.2126
 5739SOL    HW118658   2.413   3.432  11.023 -0.9322 -0.1950  0.1127
 5739SOL    HW218659   2.458   3.506  11.148 -0.6272 -0.0715 -0.0690
 5740SOL     OW18660   5.603   2.966   2.820  0.0132 -0.1268  0.0173
 5740SOL    HW118661   5.649   2.937   2.741 -1.1714  0.1062 -0.7892
 5740SOL    HW218662   5.639   3.053   2.838  0.6522 -0.3897  0.0442
 5741SOL     OW18663   2.448   0.287  10.141  0.2139  0.1712  0.0647
 5741SOL    HW118664   2.412   0.280  10.053 -0.6036  1.1187  0.2982
 5741SOL    HW218665   2.372   0.276  10.198 -0.1425  3.9310  0.5551
 5742SOL     OW18666   6.467   1.223   1.967 -0.0720 -0.1702 -0.5191
 5742SOL    HW118667   6.378   1.196   1.941 -0.2556 -0.3631  0.2790
 5742SOL    HW218668   6.502   1.146   2.012 -0.1173  0.4736  0.6365
 5743SOL     OW18669   1.879   0.337   8.001  0.2372 -0.0688  0.3022
 5743SOL    HW118670   1.951   0.288   8.040  0.4545  1.1397  1.4836
 5743SOL    HW218671   1.870   0.415   8.056 -1.7717 -0.0336  0.0141
 5744SOL     OW18672   0.704   5.782  11.275 -0.2195  0.6890 -0.2622
 5744SOL    HW118673   0.731   5.873  11.290  0.1358  1.1000 -2.9130
 5744SOL    HW218674   0.709   5.771  11.180  2.4892 -2.9554  0.1110
 5745SOL     OW18675   2.353   7.231   0.154  0.3321 -0.0601  0.1335
 5745SOL    HW118676   2.400   7.228   0.237  0.7274 -0.5983 -0.1030
 5745SOL    HW218677   2.310   7.317   0.153  2.6754  1.1767 -0.4062
 5746SOL     OW18678   1.537   5.903   5.480 -0.5490 -0.0332 -0.5892
 5746SOL    HW118679   1.519   5.986   5.523 -0.6484 -1.1987  1.7748
 5746SOL    HW218680   1.632   5.890   5.492 -0.4821 -0.1417 -1.2039
 5747SOL     OW18681   6.354   5.444  11.794  0.2092 -0.1627  0.0759
 5747SOL    HW118682   6.346   5.475  11.704 -0.6969 -0.2319  0.1280
 5747SOL    HW218683   6.435   5.484  11.825  0.4661 -0.0381 -0.7243
 5748SOL     OW18684   7.164   1.798   4.919 -0.5054  0.6462  0.2968
 5748SOL    HW118685   7.204   1.756   4.844 -0.0421  0.8180  0.4439
 5748SOL    HW218686   7.161   1.891   4.896  1.7633  1.0718  1.3797
 5749SOL     OW18687   4.622   4.279   0.687 -0.4683  0.0191 -0.2797
 5749SOL    HW118688   4.598   4.369   0.669  0.9793  0.8780  1.7224
 5749SOL    HW218689   4.718   4.278   0.682 -0.2491 -0.6591  2.5841
 5750SOL     OW18690   1.774   4.035   5.377  0.1158  0.3407 -0.3260
 5750SOL    HW118691   1.782   4.130   5.365 -0.2925  0.4715  0.3704
 5750SOL    HW218692   1.705   4.025   5.443 -0.9651 -0.4950 -1.5279
 5751SOL     OW18693   3.727   5.858   9.379 -0.0331  0.8870 -0.7174
 5751SOL    HW118694   3.659   5.898   9.433 -0.9652 -2.4076  0.8133
 5751SOL    HW218695   3.679   5.817   9.307  0.3631 -0.7552 -0.0852
 5752SOL     OW18696   6.517   7.179   2.357 -0.2172  0.4043  0.2510
 5752SOL    HW118697   6.450   7.200   2.421 -0.1846  0.2622  0.3323
 5752SOL    HW218698   6.469   7.162   2.276 -0.2330  0.9414  0.1455
 5753SOL     OW18699   2.729   7.130   8.454 -0.6242  0.4485  0.1765
 5753SOL    HW118700   2.780   7.088   8.385 -1.0328 -0.2378  0.2825
 5753SOL    HW218701   2.788   7.197   8.490 -1.0371  2.1220 -2.0651
 5754SOL     OW18702   5.156   7.887   1.964  0.1568  0.0548  0.3224
 5754SOL    HW118703   5.142   7.800   1.926 -1.1073  0.8729 -1.2243
 5754SOL    HW218704   5.135   7.947   1.893  4.5437  1.6752  0.1403
 5755SOL     OW18705   0.097   3.596   4.024 -0.4329 -0.1924  0.5809
 5755SOL    HW118706   0.124   3.586   4.115  0.4318 -0.8391  0.2718
 5755SOL    HW218707   0.022   3.538   4.014  1.5400 -2.8888  0.0608
 5756SOL     OW18708   0.689   0.094   2.409 -0.4084 -0.0933  0.0259
 5756SOL    HW118709   0.609   0.135   2.375 -0.1409  0.9542  0.6331
 5756SOL    HW218710   0.703   0.136   2.494  0.1767 -1.0745  0.4245
 5757SOL     OW18711   1.166   2.178   6.104 -0.1192 -0.5185 -0.2266
 5757SOL    HW118712   1.168   2.261   6.152  0.1846 -0.0985 -0.9528
 5757SOL    HW218713   1.165   2.204   6.012  1.1494 -1.3271 -0.4890
 5758SOL     OW18714   6.490   1.706   9.411 -0.2129  0.1392 -0.1569
 5758SOL    HW118715   6.453   1.794   9.407 -0.8021 -0.0957  0.0272
 5758SOL    HW218716   6.429   1.652   9.360 -0.5593 -0.4047  0.8196
 5759SOL     OW18717   2.988   0.838  11.085 -0.1805 -0.4995  0.3870
 5759SOL    HW118718   3.079   0.834  11.055  0.5636  0.5407  2.3673
 5759SOL    HW218719   2.940   0.868  11.008  1.8579  3.4434  0.3848
 5760SOL     OW18720   0.897   5.405   1.622  0.3241  0.3603  0.0085
 5760SOL    HW118721   0.856   5.348   1.556  1.7994 -0.1865 -0.4756
 5760SOL    HW218722   0.828   5.466   1.647 -0.8346 -0.6344 -0.6370
 5761SOL     OW18723   6.661   5.573   8.665  0.1622  0.0701  0.1470
 5761SOL    HW118724   6.671   5.638   8.735 -0.5594  0.1665  0.1656
 5761SOL    HW218725   6.670   5.623   8.584  1.2340 -0.0784  0.1569
 5762SOL     OW18726   4.031   2.608   0.142  1.1876  0.2071 -0.0458
 5762SOL    HW118727   3.956   2.554   0.164  2.4697 -2.7166 -2.2270
 5762SOL    HW218728   4.079   2.617   0.224 -0.2662  0.0594  0.8516
 5763SOL     OW18729   7.499   3.254  11.777  0.3802  0.0201 -0.1332
 5763SOL    HW118730   7.589   3.229  11.756  0.7750  0.2266  1.2571
 5763SOL    HW218731   7.484   3.219  11.865 -1.5007 -1.5616 -0.9945
 5764SOL     OW18732   2.729   6.275   1.873  0.3080  0.8360  0.1068
 5764SOL    HW118733   2.664   6.285   1.803 -0.5293 -0.6337  0.6205
 5764SOL    HW218734   2.774   6.193   1.852  0.9489  1.0549  0.5969
 5765SOL     OW18735   3.129   2.949   0.469 -0.3101 -0.4434  0.6896
 5765SOL    HW118736   3.182   2.926   0.393 -1.4606 -1.2220  0.1015
 5765SOL    HW218737   3.078   3.025   0.440  0.9968  0.7821  1.5018
 5766SOL     OW18738   6.041   1.905  10.166 -0.4589 -0.3094  0.4989
 5766SOL    HW118739   6.114   1.962  10.140 -0.3488 -0.2947  0.8457
 5766SOL    HW218740   6.016   1.935  10.253 -0.0858 -1.0961  0.8908
 5767SOL     OW18741   3.529   6.977   6.146  0.0153 -0.0810 -0.2949
 5767SOL    HW118742   3.544   6.996   6.053  0.1972 -0.4739 -0.3507
 5767SOL    HW218743   3.472   6.899   6.145  2.1039 -1.7006 -0.1028
 5768SOL     OW18744   0.561   0.358  11.642 -0.9912  0.0099 -0.7786
 5768SOL    HW118745   0.467   0.372  11.645 -1.0920 -0.7426 -0.0885
 5768SOL    HW218746   0.572   0.276  11.595 -0.8622 -1.2242  1.2679
 5769SOL     OW18747   1.341   5.690   5.518  0.1551  0.3651 -0.1598
 5769SOL    HW118748   1.265   5.718   5.568 -1.3099 -0.7641 -1.6318
 5769SOL    HW218749   1.402   5.764   5.523  1.2895 -0.5025  5.2522
 5770SOL     OW18750   5.561   0.014   3.298  0.2666 -0.0981 -0.3281
 5770SOL    HW118751   5.642   0.003   3.248  0.7634 -0.8075  0.5939
 5770SOL    HW218752   5.545   0.108   3.298  1.9567  0.2235  0.7563
 5771SOL     OW18753   0.209   1.229   6.907  0.4038  0.6873  0.0478
 5771SOL    HW118754   0.260   1.268   6.836 -0.7186  1.1454 -0.5335
 5771SOL    HW218755   0.169   1.152   6.867 -1.2573  1.6425 -0.2294
 5772SOL     OW18756   6.787   2.115   4.752  0.5238 -0.6397  0.2887
 5772SOL    HW118757   6.818   2.204   4.734  1.6982 -0.8778  1.0225
 5772SOL    HW218758   6.723   2.125   4.822  0.7425 -0.3763  0.4509
 5773SOL     OW18759   4.063   1.380   8.619 -0.1114 -0.0621 -0.3474
 5773SOL    HW118760   4.078   1.287   8.604 -0.7643 -0.2192 -0.0354
 5773SOL    HW218761   3.978   1.397   8.578 -1.6187 -0.3369  2.4664
 5774SOL     OW18762   1.644   4.651  11.212 -0.1288 -0.1803  0.0320
 5774SOL    HW118763   1.669   4.743  11.217 -1.1589  0.1675 -0.8205
 5774SOL    HW218764   1.673   4.613  11.296 -1.1249  1.2809  1.0751
 5775SOL     OW18765   4.675   5.322  10.428  0.0278 -0.4084 -0.2532
 5775SOL    HW118766   4.755   5.305  10.478 -1.8088 -0.6733  2.8462
 5775SOL    HW218767   4.638   5.236  10.412 -1.9777 -0.2380  2.6833
 5776SOL     OW18768   6.702   4.698  11.325 -0.7625 -0.4901  0.2224
 5776SOL    HW118769   6.746   4.669  11.245  0.8403 -0.7420  1.1497
 5776SOL    HW218770   6.739   4.642  11.394 -2.1734 -0.3451  1.1350
 5777SOL     OW18771   2.569   6.827   9.507 -0.1220  0.1239  0.0781
 5777SOL    HW118772   2.651   6.862   9.544  0.1801  1.1695 -1.4682
 5777SOL    HW218773   2.597   6.767   9.438 -0.6399  0.1659 -0.1769
 5778SOL     OW18774   4.305   7.709   4.892 -0.0854 -0.8880 -1.1529
 5778SOL    HW118775   4.346   7.792   4.870 -0.2549 -0.1444  1.0995
 5778SOL    HW218776   4.213   7.732   4.909  0.3066 -1.0680  1.6126
 5779SOL     OW18777   3.148   0.571   1.505  0.5642 -0.6489  0.3423
 5779SOL    HW118778   3.059   0.545   1.480 -0.0737 -0.7185  2.4442
 5779SOL    HW218779   3.180   0.497   1.557  2.2390 -1.0078 -1.1144
 5780SOL     OW18780   0.240   2.721   8.279  0.2309 -0.1513 -0.1246
 5780SOL    HW118781   0.194   2.712   8.362  1.2710 -1.6062  0.3329
 5780SOL    HW218782   0.220   2.640   8.231  1.5912 -0.4355 -0.2552
 5781SOL     OW18783   2.129   2.978   3.754 -0.2235 -0.2840  0.2139
 5781SOL    HW118784   2.165   2.905   3.704 -1.3144 -0.5417 -0.2079
 5781SOL    HW218785   2.151   3.055   3.702 -0.1309 -0.4181  0.0546
 5782SOL     OW18786   4.195   1.569   6.308  0.1833  0.4638 -0.1408
 5782SOL    HW118787   4.200   1.613   6.223 -1.0155 -0.0438 -0.4969
 5782SOL    HW218788   4.122   1.509   6.299 -0.6448  1.1540  1.6073
 5783SOL     OW18789   0.051   1.355   1.737 -0.3965 -0.4256  0.1586
 5783SOL    HW118790   0.000   1.432   1.763 -0.1333 -0.3386  0.4186
 5783SOL    HW218791   0.078   1.373   1.647 -0.1270 -0.1034  0.3018
 5784SOL     OW18792   4.800   6.702   2.316  0.2122  0.6795  0.0533
 5784SOL    HW118793   4.865   6.632   2.309  0.2011  0.6749 -0.0091
 5784SOL    HW218794   4.814   6.755   2.237 -0.8423 -0.1559 -0.7274
 5785SOL     OW18795   7.248   5.673   3.516  0.1591 -0.7659  0.1568
 5785SOL    HW118796   7.211   5.649   3.601  0.6943  0.6299  0.8158
 5785SOL    HW218797   7.341   5.654   3.524  0.2651 -0.3166  0.0091
 5786SOL     OW18798   7.234   1.148   7.157 -0.1528  0.0181  0.2839
 5786SOL    HW118799   7.243   1.054   7.171  1.0710 -0.0785 -0.9108
 5786SOL    HW218800   7.307   1.186   7.206  0.8567  0.1113 -1.2300
 5787SOL     OW18801   3.689   2.811   9.144  0.2064  0.4071  0.3498
 5787SOL    HW118802   3.744   2.888   9.155 -0.8111  1.0084  1.4310
 5787SOL    HW218803   3.693   2.766   9.229  1.6315 -1.3437 -0.5757
 5788SOL     OW18804   4.783   3.330   2.427 -0.5344 -0.7488  0.2838
 5788SOL    HW118805   4.715   3.310   2.363 -0.6370  0.7825 -0.1426
 5788SOL    HW218806   4.737   3.375   2.498 -0.2748 -1.5968  1.0175
 5789SOL     OW18807   3.536   7.127   8.474  0.4532 -0.0474  0.4632
 5789SOL    HW118808   3.553   7.112   8.381  1.0574  1.4216  0.3263
 5789SOL    HW218809   3.622   7.145   8.512  0.2251 -0.7291  1.3408
 5790SOL     OW18810   5.860   4.551   4.750 -0.3168 -1.1447  0.1033
 5790SOL    HW118811   5.948   4.581   4.729 -0.9079 -0.2717 -1.2884
 5790SOL    HW218812   5.844   4.585   4.838  0.2562 -0.1540 -0.1543
 5791SOL     OW18813   7.240   0.465   4.928  0.0015 -0.2739 -0.6823
 5791SOL    HW118814   7.276   0.410   4.998 -0.7184 -1.9287 -1.5475
 5791SOL    HW218815   7.186   0.529   4.973 -0.5244 -1.3584  0.2981
 5792SOL     OW18816   1.154   1.821  11.455  0.0098 -0.0131 -0.0954
 5792SOL    HW118817   1.142   1.901  11.404  0.7790 -0.9376 -1.8356
 5792SOL    HW218818   1.087   1.824  11.523 -0.7314  1.5263 -0.8605
 5793SOL     OW18819   0.518   6.352   5.664 -0.2714 -0.5877 -0.5129
 5793SOL    HW118820   0.448   6.310   5.614 -1.9000  2.0346 -0.5928
 5793SOL    HW218821   0.544   6.427   5.611  0.6472  0.0891  0.8373
 5794SOL     OW18822   4.357   0.374  11.134  0.2125 -0.5111  0.0530
 5794SOL    HW118823   4.435   0.348  11.184  0.0130  1.1195  1.2811
 5794SOL    HW218824   4.388   0.444  11.076 -0.4913  0.9123  1.3162
 5795SOL     OW18825   2.591   6.699   1.414  0.0068  0.0783  0.1169
 5795SOL    HW118826   2.555   6.766   1.356  1.3139  1.2583  0.6061
 5795SOL    HW218827   2.678   6.679   1.378  0.1339 -0.4412  0.6839
 5796SOL     OW18828   0.583   3.428   0.234 -0.3836 -0.0238 -0.1816
 5796SOL    HW118829   0.607   3.448   0.324 -0.4522 -1.9903  0.3061
 5796SOL    HW218830   0.511   3.366   0.241  0.8287 -1.6678 -1.5425
 5797SOL     OW18831   6.171   6.683   2.914 -0.5876 -0.2662 -0.6410
 5797SOL    HW118832   6.247   6.655   2.966 -0.8116 -0.7818 -0.5825
 5797SOL    HW218833   6.196   6.662   2.824 -0.1921  0.6439 -0.7527
 5798SOL     OW18834   6.312   7.219   1.376 -0.2844  0.1519 -0.2783
 5798SOL    HW118835   6.399   7.188   1.352  0.4069  1.3766  0.5123
 5798SOL    HW218836   6.308   7.309   1.341 -1.4636 -0.0750 -0.8087
 5799SOL     OW18837   0.955   2.516   3.030  0.1337 -0.1493  0.9087
 5799SOL    HW118838   1.041   2.473   3.024 -0.4428 -1.2546  0.2878
 5799SOL    HW218839   0.956   2.560   3.115  1.2212 -0.3508  1.0146
 5800SOL     OW18840   0.896   7.483  10.180 -0.3897 -1.0402  0.2547
 5800SOL    HW118841   0.803   7.471  10.199 -0.7638  0.2599 -0.6804
 5800SOL    HW218842   0.924   7.397  10.147 -0.9363 -1.8084  1.6927
 5801SOL     OW18843   2.358   1.538   3.965 -0.6613  0.0806  0.1189
 5801SOL    HW118844   2.374   1.459   3.914  0.1703 -0.5207  1.2553
 5801SOL    HW218845   2.293   1.512   4.030  1.6098 -0.5575  2.3012
 5802SOL     OW18846   5.399   0.042   0.290 -0.1487  0.1012  0.2929
 5802SOL    HW118847   5.478  -0.012   0.284  1.4059  1.5342  4.2563
 5802SOL    HW218848   5.421   0.121   0.240  0.5438  0.0587  0.5107
 5803SOL     OW18849   1.931   1.087   5.072  0.4682 -0.1061 -0.2027
 5803SOL    HW118850   1.844   1.069   5.107 -0.0079 -0.8430 -1.6947
 5803SOL    HW218851   1.923   1.174   5.031 -0.0108 -0.8049 -1.6454
 5804SOL     OW18852   1.637   4.829   4.577 -0.1860  0.4712  0.5529
 5804SOL    HW118853   1.552   4.872   4.582 -0.8137 -0.5542 -0.7720
 5804SOL    HW218854   1.639   4.789   4.491  1.4801  0.1040  0.7204
 5805SOL     OW18855   3.481   7.958   7.437 -0.2950 -0.0568  0.0651
 5805SOL    HW118856   3.504   8.010   7.360 -1.1679 -0.4721 -0.4888
 5805SOL    HW218857   3.417   7.894   7.406  0.3056 -1.0928  0.8605
 5806SOL     OW18858   2.905   4.173   7.091  0.3156  0.3393  0.3301
 5806SOL    HW118859   2.855   4.253   7.075 -0.2676 -0.0557  0.1313
 5806SOL    HW218860   2.918   4.136   7.004 -0.4214 -0.3681  0.5062
 5807SOL     OW18861   4.815   2.169   6.796  0.0970 -0.5980  0.3625
 5807SOL    HW118862   4.726   2.174   6.832  0.0433 -0.4841  0.2160
 5807SOL    HW218863   4.872   2.184   6.871 -0.0224  0.0843  0.3254
 5808SOL     OW18864   1.160   7.573   1.597 -0.1179 -0.4300 -0.0793
 5808SOL    HW118865   1.213   7.502   1.560 -0.1888 -0.1924 -0.6445
 5808SOL    HW218866   1.075   7.564   1.554 -0.9378 -1.5188  1.6472
 5809SOL     OW18867   1.582   5.584   7.901 -0.0827 -0.2233 -0.7831
 5809SOL    HW118868   1.628   5.633   7.969  0.8347 -0.6571 -1.0812
 5809SOL    HW218869   1.631   5.601   7.821 -2.4862  2.2383 -1.9144
 5810SOL     OW18870   7.558   6.499  10.635 -0.1914 -0.9561 -0.0773
 5810SOL    HW118871   7.584   6.585  10.667 -0.1461 -1.2088  0.5882
 5810SOL    HW218872   7.471   6.512  10.597  1.0457 -0.0008 -2.7955
 5811SOL     OW18873   2.639   4.708   5.222  0.4085 -0.2805  0.1917
 5811SOL    HW118874   2.652   4.645   5.151  1.1870 -0.0754  0.1413
 5811SOL    HW218875   2.545   4.707   5.238  0.1312  0.0898 -1.2416
 5812SOL     OW18876   7.563   6.866   6.029 -0.2223  0.1396 -0.4588
 5812SOL    HW118877   7.472   6.854   6.002 -1.3166 -0.1225  2.8787
 5812SOL    HW218878   7.567   6.955   6.064  1.2351  0.6638 -1.8318
 5813SOL     OW18879   5.604   1.802   4.741  0.3643 -0.2838  0.5213
 5813SOL    HW118880   5.515   1.817   4.775  0.2618 -1.2506  0.6942
 5813SOL    HW218881   5.660   1.857   4.796 -0.3809  2.7107 -1.4316
 5814SOL     OW18882   0.244   3.242   7.003  0.2340 -0.2672 -1.2534
 5814SOL    HW118883   0.321   3.259   6.949  0.9634  0.0880 -0.1510
 5814SOL    HW218884   0.259   3.155   7.040  0.7857  0.3372  0.0160
 5815SOL     OW18885   4.069   5.992  11.663  0.0584 -0.3976  0.4822
 5815SOL    HW118886   4.157   6.027  11.651 -0.5272  1.3721  1.0367
 5815SOL    HW218887   4.023   6.017  11.582 -0.2243 -0.3487  0.6594
 5816SOL     OW18888   1.973   1.508  12.000 -0.3475 -0.2329  0.1669
 5816SOL    HW118889   1.978   1.413  12.012  2.3584 -0.0601  1.2075
 5816SOL    HW218890   2.044   1.528  11.939  0.2246  1.2324  1.2501
 5817SOL     OW18891   3.076   1.956   8.209  0.7770  0.3236 -0.4882
 5817SOL    HW118892   2.992   1.993   8.182  0.8822 -0.4416 -1.9427
 5817SOL    HW218893   3.053   1.876   8.257  0.6705 -0.3902 -1.6887
 5818SOL     OW18894   5.397   2.724  10.647  0.2719 -0.3338 -0.5181
 5818SOL    HW118895   5.466   2.726  10.713  0.9595  1.1077 -1.2420
 5818SOL    HW218896   5.431   2.777  10.575 -0.9946 -0.8091 -1.5077
 5819SOL     OW18897   4.633   0.870   8.438 -0.2836  0.4722 -0.1191
 5819SOL    HW118898   4.655   0.794   8.493 -2.0540 -0.4405 -0.5978
 5819SOL    HW218899   4.670   0.945   8.485  1.1754 -0.6168  0.5655
 5820SOL     OW18900   4.464   1.674   9.859  0.7388 -0.0248  0.4767
 5820SOL    HW118901   4.385   1.726   9.848  0.1392 -1.0601 -0.3392
 5820SOL    HW218902   4.535   1.731   9.831 -0.0661 -0.1516 -2.0332
 5821SOL     OW18903   1.488   3.446   7.591 -0.2855  0.2050  0.3078
 5821SOL    HW118904   1.541   3.430   7.513 -1.6271 -1.3135 -0.3573
 5821SOL    HW218905   1.535   3.403   7.662 -0.0684 -0.2002 -0.0757
 5822SOL     OW18906   7.792   7.162  11.403  0.1853  0.5997  0.1667
 5822SOL    HW118907   7.783   7.093  11.338  3.4212 -0.0808  0.2793
 5822SOL    HW218908   7.747   7.129  11.481  1.4971 -1.3524  0.1481
 5823SOL     OW18909   5.519   0.653   8.014 -0.5180 -0.8949  0.2712
 5823SOL    HW118910   5.564   0.715   8.073 -1.5551  0.3479 -0.2100
 5823SOL    HW218911   5.589   0.594   7.985  0.6593  0.4848  0.1783
 5824SOL     OW18912   1.872   5.390   4.170 -0.0486 -0.4130 -0.1564
 5824SOL    HW118913   1.816   5.345   4.233 -0.2783 -2.4840 -1.7695
 5824SOL    HW218914   1.824   5.470   4.147 -0.5582 -0.2895  1.2495
 5825SOL     OW18915   6.818   4.612   9.531  0.4752  0.3849  0.0429
 5825SOL    HW118916   6.760   4.678   9.566  2.0667  1.7355  0.2562
 5825SOL    HW218917   6.794   4.605   9.438 -1.3147 -0.5598  0.5385
 5826SOL     OW18918   1.053   4.090   8.533 -0.3099  0.0244  0.1086
 5826SOL    HW118919   1.111   4.038   8.478 -1.9548 -1.0115 -0.7377
 5826SOL    HW218920   1.012   4.026   8.592 -0.3228  0.7760  0.9366
 5827SOL     OW18921   3.997   1.871  10.477  0.6570  0.7233 -0.1100
 5827SOL    HW118922   4.031   1.782  10.483  1.2844  1.0002  0.6016
 5827SOL    HW218923   4.053   1.913  10.412 -0.0743  0.4187 -0.9585
 5828SOL     OW18924   4.197   5.904   3.362  0.7351  0.1329  0.4431
 5828SOL    HW118925   4.107   5.876   3.341  0.5143  1.4924 -0.5229
 5828SOL    HW218926   4.190   5.941   3.450  0.5777 -0.7224  0.8038
 5829SOL     OW18927   5.193   3.993   2.587 -0.0987 -0.2062 -0.1912
 5829SOL    HW118928   5.172   4.078   2.626  0.8072  0.2284 -0.6512
 5829SOL    HW218929   5.218   3.938   2.662  1.4525  0.5716 -0.1065
 5830SOL     OW18930   1.346   0.772  10.953 -0.1962 -0.2396 -0.0066
 5830SOL    HW118931   1.413   0.838  10.941  0.9479 -0.9081  2.1565
 5830SOL    HW218932   1.268   0.821  10.981  0.1195  0.3296 -0.1138
 5831SOL     OW18933   6.616   7.002   6.689 -0.6647  0.1873  0.1454
 5831SOL    HW118934   6.578   7.026   6.605 -0.6183  0.5428  0.2214
 5831SOL    HW218935   6.557   7.041   6.754  0.3605  1.6556  0.2618
 5832SOL     OW18936   0.704   3.806   6.433 -0.1433  0.2122  0.2805
 5832SOL    HW118937   0.697   3.836   6.524 -3.3781 -0.3427  0.3048
 5832SOL    HW218938   0.771   3.863   6.395  0.5297  1.1806  2.7131
 5833SOL     OW18939   1.717   6.921   0.096 -0.5543 -0.0668  0.1325
 5833SOL    HW118940   1.696   7.014   0.087 -0.2112  0.0034  0.0531
 5833SOL    HW218941   1.804   6.919   0.136  1.7338 -0.2594 -4.2628
 5834SOL     OW18942   0.481   4.691   5.435 -0.0962  0.3836 -0.1697
 5834SOL    HW118943   0.493   4.691   5.340  1.9719 -0.5593  0.0422
 5834SOL    HW218944   0.475   4.598   5.459 -0.3483  0.6005  0.6475
 5835SOL     OW18945   0.309   7.960  10.266  0.1936  0.3163 -0.2579
 5835SOL    HW118946   0.247   7.888  10.273  0.5194  0.0602  0.0454
 5835SOL    HW218947   0.319   7.975  10.172  0.2307 -0.1228 -0.3233
 5836SOL     OW18948   2.699   0.013   5.604  0.2592  0.3107 -0.4631
 5836SOL    HW118949   2.674   0.077   5.671  1.3324 -1.0635  1.3438
 5836SOL    HW218950   2.795   0.011   5.608  0.2600 -1.1841 -0.6774
 5837SOL     OW18951   5.696   5.724   8.496  0.4625  0.0431  0.6574
 5837SOL    HW118952   5.768   5.661   8.500  0.2445 -0.2307  0.3675
 5837SOL    HW218953   5.705   5.765   8.410  0.3391  0.0928  0.6683
 5838SOL     OW18954   4.984   1.843   5.133 -0.0910 -0.0632  0.7103
 5838SOL    HW118955   4.926   1.837   5.056  1.9032 -0.4761 -0.8481
 5838SOL    HW218956   4.999   1.752   5.158 -1.2988  0.0894  2.0945
 5839SOL     OW18957   0.277   5.834   0.726  0.5280  0.3922  1.2027
 5839SOL    HW118958   0.241   5.745   0.721  0.4472  0.4517 -2.4999
 5839SOL    HW218959   0.200   5.890   0.733  0.1868  0.2412 -0.6092
 5840SOL     OW18960   6.437   0.192   0.379  0.2966 -0.4002  0.1521
 5840SOL    HW118961   6.513   0.180   0.436  1.0699 -1.0505 -0.9693
 5840SOL    HW218962   6.362   0.193   0.439  1.2274  0.9754  1.3512
 5841SOL     OW18963   0.937   5.745   3.386  0.2779 -0.2061  0.0919
 5841SOL    HW118964   1.014   5.706   3.344 -0.9971 -0.5173 -2.1619
 5841SOL    HW218965   0.967   5.830   3.419  1.8277 -0.8058  0.2901
 5842SOL     OW18966   2.709   6.183   6.239  0.0871 -0.3342 -0.4148
 5842SOL    HW118967   2.738   6.263   6.196 -1.5290  0.3755 -0.2532
 5842SOL    HW218968   2.688   6.124   6.167 -0.8945  0.2137 -0.5948
 5843SOL     OW18969   5.847   3.973  10.816 -0.5367  0.2503  0.1832
 5843SOL    HW118970   5.814   4.024  10.891 -0.6930  0.3893  0.0212
 5843SOL    HW218971   5.774   3.916  10.792 -0.0878 -0.6485  0.8800
 5844SOL     OW18972   2.860   7.175   7.085  0.2456 -0.0621  0.0041
 5844SOL    HW118973   2.881   7.171   6.991 -2.3818 -0.0227 -0.6667
 5844SOL    HW218974   2.826   7.263   7.098  1.3097  0.2060  1.2338
 5845SOL     OW18975   6.583   6.656   4.492  0.1737 -0.3533  0.5292
 5845SOL    HW118976   6.593   6.562   4.480 -1.8588 -0.6374  0.6604
 5845SOL    HW218977   6.585   6.669   4.587 -0.1689 -0.3595  0.5391
 5846SOL     OW18978   6.053   2.287   5.983 -0.8239 -0.1179  0.6163
 5846SOL    HW118979   6.145   2.311   5.970 -0.7946 -0.5382 -0.0491
 5846SOL    HW218980   6.022   2.267   5.894 -1.4009 -0.5032  0.9052
 5847SOL     OW18981   5.779   4.417  11.370 -0.0807 -0.0744  0.1903
 5847SOL    HW118982   5.708   4.384  11.425  2.0019 -2.2848  1.7495
 5847SOL    HW218983   5.817   4.338  11.330  0.1391  1.2425 -2.4552
 5848SOL     OW18984   0.918   3.607   7.138 -0.1366  0.2184 -0.3553
 5848SOL    HW118985   0.848   3.630   7.077  1.4145  0.1842 -2.2479
 5848SOL    HW218986   0.992   3.662   7.112  0.0372  1.6395  2.8116
 5849SOL     OW18987   1.714   7.026   0.479 -0.0996  0.0595 -0.3855
 5849SOL    HW118988   1.704   7.075   0.561  0.3783  0.5236 -0.5950
 5849SOL    HW218989   1.803   6.990   0.484 -1.5139 -3.6879  1.3069
 5850SOL     OW18990   6.001   5.107   4.404 -0.2489 -0.4290  0.7971
 5850SOL    HW118991   6.012   5.181   4.343 -0.9553 -0.5994  0.4504
 5850SOL    HW218992   6.079   5.110   4.459 -0.9080  1.4554  1.7344
 5851SOL     OW18993   4.083   2.256   9.917 -0.4214 -0.4312  0.7019
 5851SOL    HW118994   4.023   2.295   9.980 -2.4387 -0.2402 -1.2068
 5851SOL    HW218995   4.077   2.162   9.933 -0.5261 -0.3550  1.1185
 5852SOL     OW18996   3.325   6.884   2.716  0.0106 -0.4095  0.2708
 5852SOL    HW118997   3.418   6.884   2.739  0.0613 -0.8478  0.0735
 5852SOL    HW218998   3.295   6.796   2.737 -0.7887  0.2217  1.9920
 5853SOL     OW18999   7.131   1.452   7.800 -0.6745  0.1039 -0.1738
 5853SOL    HW119000   7.216   1.420   7.829 -1.0875  0.3164  1.3867
 5853SOL    HW219001   7.149   1.499   7.719  0.6475 -0.1003 -0.0175
 5854SOL     OW19002   2.347   3.904   7.067  0.0637 -0.9493 -0.2021
 5854SOL    HW119003   2.393   3.893   7.150  0.6268  1.4028 -0.1314
 5854SOL    HW219004   2.371   3.992   7.038 -2.5976 -0.5131 -1.3352
 5855SOL     OW19005   6.483   2.892   4.241 -0.5622 -0.3705  0.2821
 5855SOL    HW119006   6.441   2.918   4.324 -0.8386 -0.0926  0.0575
 5855SOL    HW219007   6.438   2.811   4.217  0.1578 -0.9653  0.8764
 5856SOL     OW19008   5.927   6.734   9.484  0.0071  0.2289 -0.0515
 5856SOL    HW119009   6.019   6.757   9.495 -0.3504  1.4395  0.6185
 5856SOL    HW219010   5.928   6.648   9.443  1.4392 -0.2710  0.9639
 5857SOL     OW19011   5.380   5.673   2.005  0.1424  0.1174  0.6446
 5857SOL    HW119012   5.400   5.718   1.922  1.6609 -0.0219  0.9082
 5857SOL    HW219013   5.386   5.580   1.984  0.3341  0.0795  0.8639
 5858SOL     OW19014   0.585   6.944   6.918 -0.2481 -0.0443  0.0541
 5858SOL    HW119015   0.529   6.941   6.840 -1.5790 -2.7389  0.9710
 5858SOL    HW219016   0.643   6.868   6.909  0.1615  0.1026  1.2745
 5859SOL     OW19017   7.790   3.522   9.973 -0.6241 -0.1087  0.4420
 5859SOL    HW119018   7.744   3.474   9.904  0.6775 -1.8642  0.7129
 5859SOL    HW219019   7.757   3.612   9.966 -0.4485 -0.1812 -2.5330
 5860SOL     OW19020   5.736   5.271   3.581 -0.1976  0.1640 -0.3074
 5860SOL    HW119021   5.685   5.336   3.629 -0.1521  1.8896 -2.4404
 5860SOL    HW219022   5.821   5.312   3.569  0.2894 -0.8836 -0.4962
 5861SOL     OW19023   5.547   6.372   0.144  0.2411 -0.5628  0.3068
 5861SOL    HW119024   5.642   6.373   0.147  0.2237 -0.1491  1.6879
 5861SOL    HW219025   5.521   6.464   0.152 -0.2823 -0.6093 -0.6441
 5862SOL     OW19026   3.074   3.134   1.099  0.6301 -0.1654 -0.3029
 5862SOL    HW119027   3.113   3.116   1.013 -0.8312  2.1629 -1.5555
 5862SOL    HW219028   3.120   3.212   1.130  0.8332 -0.7295  0.8794
 5863SOL     OW19029   7.161   5.843  10.388 -0.2450 -0.4125  0.1610
 5863SOL    HW119030   7.161   5.921  10.444  1.6116  1.8400 -2.6767
 5863SOL    HW219031   7.145   5.877  10.300 -0.8950 -3.4882 -1.0405
 5864SOL     OW19032   5.030   1.202   5.543  0.4820 -0.1112 -0.0574
 5864SOL    HW119033   5.017   1.276   5.602  0.3522  0.1313 -0.3882
 5864SOL    HW219034   5.102   1.228   5.486 -0.8526  0.6164 -1.5024
 5865SOL     OW19035   0.448   3.678  11.222  0.6381 -0.2343  0.2426
 5865SOL    HW119036   0.539   3.691  11.196  1.0190 -0.2002  1.5336
 5865SOL    HW219037   0.441   3.720  11.307 -0.4267 -0.7946  0.4481
 5866SOL     OW19038   2.284   5.830   2.302  0.5541 -0.0542  0.1432
 5866SOL    HW119039   2.355   5.788   2.349 -0.5384 -0.0677  1.8702
 5866SOL    HW219040   2.311   5.922   2.295  0.8975 -0.1294  0.4664
 5867SOL     OW19041   4.237   4.409   9.979  0.1396  0.2250  0.2786
 5867SOL    HW119042   4.145   4.427   9.998  0.1611  0.1049  0.5054
 5867SOL    HW219043   4.235   4.348   9.906  0.0539  0.7356 -0.1495
 5868SOL     OW19044   2.262   2.432   6.057  0.2535 -0.0013  0.1022
 5868SOL    HW119045   2.327   2.426   6.128  3.3018 -1.2205 -2.5480
 5868SOL    HW219046   2.260   2.525   6.035  0.1622  0.2180  0.9712
 5869SOL     OW19047   4.303   3.640   4.860 -0.2463 -0.2531 -0.2060
 5869SOL    HW119048   4.229   3.695   4.833  1.2296  1.3441 -1.2249
 5869SOL    HW219049   4.345   3.616   4.777  0.8451 -0.4241  0.3889
 5870SOL     OW19050   3.782   4.722  11.939 -0.6894  0.2558 -0.0562
 5870SOL    HW119051   3.805   4.808  11.974 -0.4812 -0.3707  1.3700
 5870SOL    HW219052   3.741   4.742  11.854  3.3821  1.5143 -1.9613
 5871SOL     OW19053   4.706   5.326   8.824 -0.1149 -0.2753  0.2325
 5871SOL    HW119054   4.712   5.302   8.917  0.8954 -1.5299 -0.1353
 5871SOL    HW219055   4.651   5.258   8.785 -1.0280  0.5710 -0.0116
 5872SOL     OW19056   3.704   4.273  10.954 -0.4037 -0.4235  0.0944
 5872SOL    HW119057   3.629   4.318  10.992 -1.5725 -1.9830 -0.2395
 5872SOL    HW219058   3.779   4.328  10.975 -1.6542  1.2649  0.2930
 5873SOL     OW19059   5.295   4.826  10.704 -0.0633  0.6171  0.5744
 5873SOL    HW119060   5.388   4.827  10.682 -0.1111  1.0235  0.3831
 5873SOL    HW219061   5.292   4.862  10.793 -0.3031  3.5558 -0.5258
 5874SOL     OW19062   2.751   7.863  10.285  0.1908 -0.3311 -0.2466
 5874SOL    HW119063   2.722   7.837  10.373  0.7439  1.1714  0.4156
 5874SOL    HW219064   2.673   7.903  10.246 -0.5430 -2.4572 -1.1154
 5875SOL     OW19065   6.741   1.667   3.885 -0.4084 -0.1521 -0.5063
 5875SOL    HW119066   6.668   1.652   3.825  2.5124 -1.0432 -4.1718
 5875SOL    HW219067   6.772   1.579   3.908  0.8817  0.1911 -0.8764
 5876SOL     OW19068   3.420   1.691   1.714  0.0858  0.1838  0.3617
 5876SOL    HW119069   3.326   1.673   1.714  0.1189 -0.1484 -1.0043
 5876SOL    HW219070   3.427   1.786   1.717 -0.2994  0.2097  0.4219
 5877SOL     OW19071   2.730   3.923   2.389  0.2673 -0.4209 -0.2764
 5877SOL    HW119072   2.701   3.880   2.309 -0.3085 -0.8447  0.1571
 5877SOL    HW219073   2.824   3.907   2.392  0.5198  0.6731 -1.5124
 5878SOL     OW19074   0.045   6.072   7.679 -0.5468  0.0563 -0.4035
 5878SOL    HW119075   0.034   5.978   7.661 -0.7678 -0.2039  1.0340
 5878SOL    HW219076   0.015   6.083   7.769 -3.3431  2.0473 -1.4708
 5879SOL     OW19077   7.820   1.779   5.501 -0.5521  0.2742 -0.9191
 5879SOL    HW119078   7.855   1.846   5.559 -1.1830 -0.5167  0.4305
 5879SOL    HW219079   7.732   1.761   5.536 -0.9159 -0.2761 -2.0808
 5880SOL     OW19080   5.705   1.672  10.455  0.2849 -0.3443  0.1190
 5880SOL    HW119081   5.770   1.644  10.391  0.5835  1.6375 -0.4907
 5880SOL    HW219082   5.752   1.669  10.539 -0.1161 -2.9593  0.3337
 5881SOL     OW19083   3.069   2.423   1.552  0.0377 -0.0018 -0.2653
 5881SOL    HW119084   3.046   2.436   1.644  0.4764 -0.4949 -0.0753
 5881SOL    HW219085   3.085   2.510   1.518  2.5067  0.0536  0.8430
 5882SOL     OW19086   7.081   2.736   6.974 -0.3723 -0.5211  0.2917
 5882SOL    HW119087   7.123   2.820   6.959  0.2017 -0.4916  1.8850
 5882SOL    HW219088   7.129   2.675   6.918  0.4933 -0.1353  0.6003
 5883SOL     OW19089   2.739   1.277   7.972  0.3123  0.1039 -0.1311
 5883SOL    HW119090   2.735   1.359   7.923 -1.3404  0.4924  0.6110
 5883SOL    HW219091   2.750   1.304   8.063 -3.1687 -0.2784  0.5389
 5884SOL     OW19092   5.681   1.460   6.300  0.5421  0.2994 -0.1142
 5884SOL    HW119093   5.751   1.466   6.364  0.5345  0.8042 -0.1485
 5884SOL    HW219094   5.609   1.417   6.347  1.1633 -1.0178 -0.3414
 5885SOL     OW19095   2.603   2.196   3.792 -0.4442 -0.1182  0.1327
 5885SOL    HW119096   2.668   2.148   3.842  0.7159 -0.0008 -1.2123
 5885SOL    HW219097   2.643   2.281   3.775 -2.0929  1.0537  1.6872
 5886SOL     OW19098   7.268   7.250   7.147  0.2088  0.4147  0.3732
 5886SOL    HW119099   7.270   7.328   7.093  1.6804 -0.2384 -0.5680
 5886SOL    HW219100   7.226   7.183   7.093 -0.5406  0.3766  0.9700
 5887SOL     OW19101   6.865   2.148   6.126 -0.0951  0.2762  0.4982
 5887SOL    HW119102   6.841   2.196   6.047  1.1049  0.8507  0.4661
 5887SOL    HW219103   6.911   2.212   6.180 -1.5036  0.0943  1.9937
 5888SOL     OW19104   1.485   5.062   3.811  0.0754 -0.2978 -0.4330
 5888SOL    HW119105   1.495   5.157   3.805  1.2344 -0.3978 -0.3001
 5888SOL    HW219106   1.458   5.035   3.723 -2.4900  0.3673  0.0632
 5889SOL     OW19107   5.935   0.703  10.682  0.1268  0.1014 -0.5279
 5889SOL    HW119108   5.921   0.689  10.775 -0.6725 -1.8745 -0.9119
 5889SOL    HW219109   5.856   0.748  10.652  0.8723  1.7846 -0.0822
 5890SOL     OW19110   0.695   0.511   2.284 -0.1120  0.1409 -0.2630
 5890SOL    HW119111   0.656   0.502   2.197 -2.5139 -1.9920  0.8928
 5890SOL    HW219112   0.693   0.605   2.302  1.0208  0.6992 -2.6864
 5891SOL     OW19113   0.983   4.848  10.787  0.1560  0.1837 -0.7164
 5891SOL    HW119114   1.068   4.869  10.826  0.7339 -0.6374 -1.5178
 5891SOL    HW219115   0.990   4.757  10.759 -1.0832  0.0134 -0.5619
 5892SOL     OW19116   2.616   1.612   0.612  0.3386  0.0940  0.2454
 5892SOL    HW119117   2.564   1.548   0.562 -0.1216  0.2807  0.4737
 5892SOL    HW219118   2.601   1.695   0.567 -0.5483  0.3707  1.0168
 5893SOL     OW19119   5.991   7.962   0.476 -0.3971  0.4696 -0.2727
 5893SOL    HW119120   5.973   7.943   0.568  0.8955  0.0696 -0.0789
 5893SOL    HW219121   5.980   8.057   0.469 -1.7565  0.3397 -0.0159
 5894SOL     OW19122   2.473   1.573   4.688  0.0754  0.3285 -0.2991
 5894SOL    HW119123   2.506   1.513   4.755 -1.0175  0.0783  0.0461
 5894SOL    HW219124   2.475   1.522   4.607  0.9632  0.4783 -0.3840
 5895SOL     OW19125   1.913   0.417   8.948 -0.2660  0.2274 -0.4424
 5895SOL    HW119126   1.934   0.430   9.040 -0.4430  0.2241 -0.4012
 5895SOL    HW219127   1.994   0.439   8.901  0.7998 -2.5251 -0.1193
 5896SOL     OW19128   2.865   3.296   3.380  0.6488  0.2438  0.4689
 5896SOL    HW119129   2.934   3.269   3.319  0.5541  0.8184  0.1062
 5896SOL    HW219130   2.875   3.236   3.454  2.3604  1.1211  1.0005
 5897SOL     OW19131   5.174   3.759   6.852 -0.2157 -0.1362  0.2209
 5897SOL    HW119132   5.181   3.851   6.825  0.3985 -0.2727 -0.0903
 5897SOL    HW219133   5.081   3.739   6.843 -0.0733 -0.1213 -1.5858
 5898SOL     OW19134   1.814   6.841   8.152 -0.2043 -0.9081 -0.2420
 5898SOL    HW119135   1.768   6.885   8.223 -0.0108 -1.9096  0.5229
 5898SOL    HW219136   1.906   6.844   8.178 -0.2933 -2.7274  0.3897
 5899SOL     OW19137   1.141   1.970  11.875  0.1019  0.3294  0.9646
 5899SOL    HW119138   1.150   2.055  11.832 -1.3306  0.3535  0.6766
 5899SOL    HW219139   1.198   1.912  11.825 -0.6027  0.6331 -0.2391
 5900SOL     OW19140   2.789   4.668   1.872  0.1285  0.2482 -0.7878
 5900SOL    HW119141   2.800   4.626   1.786  1.0957  0.2206 -0.6566
 5900SOL    HW219142   2.696   4.690   1.875  0.1638  0.7074 -2.0635
 5901SOL     OW19143   1.811   4.332   0.330 -0.0259  0.3619 -0.0063
 5901SOL    HW119144   1.897   4.356   0.363  0.4757  0.2145 -1.1720
 5901SOL    HW219145   1.760   4.413   0.332  0.9114  1.0182 -1.6511
 5902SOL     OW19146   4.803   0.828  10.823 -0.2907  0.3512  0.0960
 5902SOL    HW119147   4.782   0.761  10.887  1.0660  0.3874  0.6083
 5902SOL    HW219148   4.732   0.823  10.758 -0.0617 -1.7749 -0.0563
 5903SOL     OW19149   7.768   3.308  10.707 -0.3515  0.4299 -0.1908
 5903SOL    HW119150   7.688   3.357  10.690 -0.1438  0.4771 -1.1137
 5903SOL    HW219151   7.808   3.351  10.783 -0.3979  1.4231 -0.7068
 5904SOL     OW19152   0.082   2.023   9.025 -0.0919 -0.0548  0.6566
 5904SOL    HW119153   0.176   2.038   9.035 -0.0093  0.8831 -1.2329
 5904SOL    HW219154   0.076   1.945   8.970 -0.3261  1.6022 -1.7825
 5905SOL     OW19155   3.709   0.934   1.560  0.0218  0.4509  0.1692
 5905SOL    HW119156   3.745   0.918   1.472 -0.6741  0.6878 -0.1601
 5905SOL    HW219157   3.684   1.027   1.559 -0.9054  0.2062  0.2848
 5906SOL     OW19158   1.310   4.508   6.645 -0.1037  0.0607  0.1752
 5906SOL    HW119159   1.377   4.527   6.580 -1.0349  1.4988 -0.4279
 5906SOL    HW219160   1.327   4.569   6.716  0.0904 -0.5676  0.6740
 5907SOL     OW19161   3.492   1.464   6.472  0.0433  0.0485 -0.0020
 5907SOL    HW119162   3.495   1.493   6.381 -0.8498 -0.4671 -0.2072
 5907SOL    HW219163   3.551   1.389   6.475 -0.7133 -0.5743 -0.4082
 5908SOL     OW19164   5.293   1.528   0.131 -0.0494  0.6930 -0.3601
 5908SOL    HW119165   5.287   1.592   0.202  1.5866  0.4771  0.0052
 5908SOL    HW219166   5.338   1.575   0.060 -3.1340  1.4618 -1.9889
 5909SOL     OW19167   3.670   3.257   2.323 -0.4175 -0.3325 -0.9233
 5909SOL    HW119168   3.688   3.169   2.354  1.2729  0.4855  0.6302
 5909SOL    HW219169   3.727   3.268   2.247  0.3142 -0.1948 -0.3694
 5910SOL     OW19170   5.494   4.341  12.458  0.1420 -0.2691 -0.1111
 5910SOL    HW119171   5.528   4.252  12.453  0.1077 -0.3439  0.8507
 5910SOL    HW219172   5.569   4.396  12.435  0.8318 -0.4572  1.5253
 5911SOL     OW19173   3.462   0.979  10.723  0.6695  0.5069 -0.2237
 5911SOL    HW119174   3.470   1.041  10.650  1.1912  2.5997  1.5064
 5911SOL    HW219175   3.379   1.003  10.765  1.1285  0.3715  0.7724
 5912SOL     OW19176   0.918   4.060   4.543  0.1711  0.1301 -0.4966
 5912SOL    HW119177   0.880   4.134   4.495 -0.7752  1.1140  1.6369
 5912SOL    HW219178   0.848   3.995   4.546 -0.0628  0.4065  0.2192
 5913SOL     OW19179   7.604   1.619   7.511 -0.5259  0.3994 -0.3429
 5913SOL    HW119180   7.677   1.587   7.564 -0.0227 -2.5070 -2.4849
 5913SOL    HW219181   7.531   1.626   7.572  0.7761  0.3414  1.2956
 5914SOL     OW19182   6.077   7.701   8.928 -0.2555 -0.1088 -0.2291
 5914SOL    HW119183   6.056   7.674   9.017 -0.1660 -2.6695 -0.9021
 5914SOL    HW219184   6.048   7.791   8.922 -1.5999 -0.3458  1.9445
 5915SOL     OW19185   7.737   6.578   9.483 -0.1024  0.2444  0.0707
 5915SOL    HW119186   7.760   6.489   9.511 -0.7450  0.3589  1.0043
 5915SOL    HW219187   7.814   6.609   9.435 -0.1694 -1.0986 -0.9708
 5916SOL     OW19188   0.600   2.615   7.900  0.4013  0.5227 -0.4384
 5916SOL    HW119189   0.647   2.650   7.824  0.3014 -0.2186 -0.8484
 5916SOL    HW219190   0.508   2.620   7.876  0.3985 -0.2790 -0.6235
 5917SOL     OW19191   0.626   7.854   9.713 -0.3516  0.7571  0.4129
 5917SOL    HW119192   0.549   7.910   9.707 -0.6662  0.2856 -0.0422
 5917SOL    HW219193   0.662   7.870   9.800 -1.7708 -0.0703  1.1738
 5918SOL     OW19194   3.728   4.824   9.930  0.0895 -0.3349 -0.5889
 5918SOL    HW119195   3.642   4.866   9.934  0.3129  0.6126 -3.5414
 5918SOL    HW219196   3.759   4.825  10.021 -2.3105  0.7635  0.3073
 5919SOL     OW19197   2.090   3.901  10.879 -0.0698 -0.1398 -0.2809
 5919SOL    HW119198   2.078   3.989  10.913  1.7182  0.4265 -0.9602
 5919SOL    HW219199   2.054   3.843  10.946 -1.4542  1.0918  0.0861
 5920SOL     OW19200   6.648   6.122   5.766 -0.2026  0.0365  0.6073
 5920SOL    HW119201   6.651   6.176   5.845  0.3410 -0.3445  0.8543
 5920SOL    HW219202   6.740   6.110   5.742 -0.2953  3.7184 -2.5825
 5921SOL     OW19203   2.710   1.607   1.686 -0.5512 -0.4792 -0.2830
 5921SOL    HW119204   2.649   1.652   1.745  0.7192 -0.8353  1.3603
 5921SOL    HW219205   2.797   1.625   1.723  0.1050 -2.8665 -0.5291
 5922SOL     OW19206   6.464   6.580   8.214  0.0379  0.0530 -0.0398
 5922SOL    HW119207   6.529   6.597   8.145 -0.9377 -0.8523 -1.2118
 5922SOL    HW219208   6.412   6.661   8.218  0.9548  0.6302  0.6242
 5923SOL     OW19209   6.631   0.599   7.080 -0.1324 -0.0751 -0.2678
 5923SOL    HW119210   6.654   0.677   7.131 -1.2724 -0.0939  0.3087
 5923SOL    HW219211   6.536   0.600   7.077 -0.1421 -1.1985 -0.6643
 5924SOL     OW19212   6.550   7.606   5.877  0.0193 -1.1965 -0.4543
 5924SOL    HW119213   6.531   7.674   5.941 -0.2403 -0.8535 -0.8894
 5924SOL    HW219214   6.637   7.628   5.844 -0.0541 -1.0896 -0.5771
 5925SOL     OW19215   7.637   7.576   3.496  0.0475 -0.1603  0.3556
 5925SOL    HW119216   7.614   7.537   3.580 -0.9721 -0.9311 -0.2460
 5925SOL    HW219217   7.686   7.655   3.518  1.7720 -1.5206  1.6300
 5926SOL     OW19218   2.782   1.043   4.839 -0.1057  0.4129 -0.0293
 5926SOL    HW119219   2.720   1.069   4.770 -0.5502  0.1084  0.2497
 5926SOL    HW219220   2.785   0.947   4.833 -1.1185  0.2803  1.1912
 5927SOL     OW19221   2.869   3.466  12.375 -0.4078 -0.2523  0.0144
 5927SOL    HW119222   2.836   3.377  12.373 -0.3897 -0.2565 -0.1546
 5927SOL    HW219223   2.964   3.457  12.381 -0.2943 -0.2682 -1.4056
 5928SOL     OW19224   0.062   4.953   4.230  0.4786 -0.4151  0.0581
 5928SOL    HW119225   0.069   5.003   4.311 -0.0440 -0.2357  0.0017
 5928SOL    HW219226   0.151   4.948   4.197  0.5986  0.1372  0.2763
 5929SOL     OW19227   3.188   0.969   6.655  0.1405 -0.0877  0.5818
 5929SOL    HW119228   3.155   0.993   6.568  0.3950  0.2674  0.5804
 5929SOL    HW219229   3.154   1.037   6.713  0.9391  0.3310  0.5657
 5930SOL     OW19230   4.543   7.272   6.406 -0.2404  0.5114 -1.0094
 5930SOL    HW119231   4.452   7.249   6.423 -0.0503 -0.1999 -0.9193
 5930SOL    HW219232   4.594   7.202   6.447  0.4058  1.7384  0.3640
 5931SOL     OW19233   4.072   7.199  12.272 -0.0734 -0.0654  0.3707
 5931SOL    HW119234   4.095   7.157  12.355 -0.4575 -0.6839  0.1720
 5931SOL    HW219235   4.142   7.173  12.212  0.9312  1.4548  0.8055
 5932SOL     OW19236   6.684   3.422  11.468 -0.2020  0.3853 -0.2581
 5932SOL    HW119237   6.768   3.390  11.436  0.2141  0.8800  0.3146
 5932SOL    HW219238   6.705   3.473  11.546 -0.8920  1.6226 -0.8411
 5933SOL     OW19239   7.348   2.591   9.077  0.3320 -0.0559 -0.1937
 5933SOL    HW119240   7.314   2.647   9.146  1.3011  0.0001  0.2636
 5933SOL    HW219241   7.286   2.519   9.071 -0.0658  0.2380  0.3443
 5934SOL     OW19242   5.823   4.059   4.639  0.3768 -0.0433 -0.1705
 5934SOL    HW119243   5.775   4.135   4.607 -1.1109 -0.6218  0.5709
 5934SOL    HW219244   5.788   3.986   4.588  0.9773 -0.3844 -0.0987
 5935SOL     OW19245   5.293   6.490  11.821 -0.2076 -0.2894  0.2424
 5935SOL    HW119246   5.335   6.467  11.904 -0.8875 -0.1702  0.6263
 5935SOL    HW219247   5.205   6.453  11.827 -0.7675  0.9798  0.1892
 5936SOL     OW19248   2.934   7.730   8.878  0.3186  0.1143  0.0104
 5936SOL    HW119249   3.000   7.798   8.890 -0.6717  1.6180 -2.4630
 5936SOL    HW219250   2.920   7.726   8.784 -3.8133  0.6023  0.4414
 5937SOL     OW19251   7.167   5.772   8.791 -0.1386  0.5911 -0.3090
 5937SOL    HW119252   7.209   5.857   8.774 -0.2972  0.4053 -1.8410
 5937SOL    HW219253   7.235   5.708   8.771  0.6329  0.3192  2.7779
 5938SOL     OW19254   6.762   3.975   3.296 -0.1598 -0.1743 -0.3147
 5938SOL    HW119255   6.853   4.004   3.305  0.0900 -0.3843 -1.8209
 5938SOL    HW219256   6.767   3.879   3.304 -0.2479 -0.1857 -0.3974
 5939SOL     OW19257   4.363   4.864   7.637  0.8061  0.3385  0.3443
 5939SOL    HW119258   4.315   4.858   7.554  0.3663  3.7260  0.2231
 5939SOL    HW219259   4.300   4.835   7.703 -0.5455  2.0199 -0.1136
 5940SOL     OW19260   7.874   6.501   0.111  0.3666 -0.3000  0.8711
 5940SOL    HW119261   7.817   6.500   0.034  0.0987 -0.1453  1.0671
 5940SOL    HW219262   7.817   6.480   0.185  0.4926  0.2024  1.1141
 5941SOL     OW19263   7.979   1.608   0.250 -0.6411 -0.1869 -0.1401
 5941SOL    HW119264   8.039   1.682   0.253 -0.2170 -0.5121  3.4107
 5941SOL    HW219265   7.892   1.648   0.243 -0.3062  0.5417 -0.1644
 5942SOL     OW19266   6.494   2.974   7.406  0.0371 -0.1480  0.0199
 5942SOL    HW119267   6.503   2.881   7.385  1.2874  0.3163 -1.6876
 5942SOL    HW219268   6.438   3.009   7.337  1.5793  0.8033 -0.8083
 5943SOL     OW19269   3.012   1.984   6.261 -0.3939  0.4771  0.5743
 5943SOL    HW119270   3.068   1.952   6.331 -0.9290  0.1408  0.8587
 5943SOL    HW219271   3.056   1.958   6.181 -0.9597 -1.2549  0.7936
 5944SOL     OW19272   4.796   0.682   7.197  0.1598  0.1141 -0.2006
 5944SOL    HW119273   4.854   0.661   7.124 -0.9611 -0.0243 -1.0785
 5944SOL    HW219274   4.750   0.600   7.215  0.3108  0.1906  0.5646
 5945SOL     OW19275   4.731   0.813  11.908  0.2572  0.0899 -1.0655
 5945SOL    HW119276   4.669   0.877  11.945  0.4031  0.3799 -1.3125
 5945SOL    HW219277   4.809   0.865  11.888  1.4654 -0.6462  1.3194
 5946SOL     OW19278   4.904   3.663   1.700 -0.1273 -0.3557  0.0364
 5946SOL    HW119279   4.971   3.665   1.632  0.2757 -1.0343  0.3966
 5946SOL    HW219280   4.917   3.745   1.748 -0.6062  0.2633 -0.8711
 5947SOL     OW19281   0.771   0.990   4.804  0.2342 -0.0182  0.6903
 5947SOL    HW119282   0.702   0.995   4.870  0.2133 -0.7787  0.7344
 5947SOL    HW219283   0.833   1.058   4.830  0.0523 -0.0720  1.2993
 5948SOL     OW19284   5.735   6.828   7.656  0.2527  0.3671  0.4010
 5948SOL    HW119285   5.736   6.780   7.739  2.1296 -0.3429  0.0324
 5948SOL    HW219286   5.807   6.891   7.665  0.4772  0.2814 -0.6567
 5949SOL     OW19287   1.964   5.473  11.614  0.1093  0.2411  0.7056
 5949SOL    HW119288   1.997   5.410  11.678 -1.3369 -0.5003  0.7801
 5949SOL    HW219289   2.024   5.547  11.618  0.1237  0.1520  2.8289
 5950SOL     OW19290   0.056   0.663  10.329 -0.3307  0.2065  0.5917
 5950SOL    HW119291   0.039   0.612  10.409  0.1715 -1.1687 -0.1567
 5950SOL    HW219292   0.148   0.645  10.308 -0.6081  0.1057 -0.6027
 5951SOL     OW19293   0.984   7.716  10.243  0.0165  0.0268 -0.0785
 5951SOL    HW119294   0.955   7.628  10.220 -0.2791  0.4419 -1.4053
 5951SOL    HW219295   0.936   7.737  10.324  1.0118 -1.4550  0.9390
 5952SOL     OW19296   1.142   2.317   8.251  0.0786  0.5743 -0.2965
 5952SOL    HW119297   1.097   2.398   8.227  1.0237  0.9916 -0.6963
 5952SOL    HW219298   1.078   2.269   8.304 -0.9885  0.9610 -1.2000
 5953SOL     OW19299   7.658   2.579  11.228 -0.2736  0.2075  0.5387
 5953SOL    HW119300   7.574   2.601  11.269 -1.3555 -0.2488 -1.2817
 5953SOL    HW219301   7.666   2.641  11.156  0.3894 -0.4848 -0.0056
 5954SOL     OW19302   1.868   3.628   6.085  0.1029 -0.2142  0.1194
 5954SOL    HW119303   1.915   3.606   6.165  0.2395  0.6810  0.2885
 5954SOL    HW219304   1.866   3.546   6.035  0.8101 -0.5468  0.6294
 5955SOL     OW19305   2.174   2.580   1.659  0.2354  0.4214 -0.2581
 5955SOL    HW119306   2.186   2.585   1.564  2.0850  1.4715 -0.0202
 5955SOL    HW219307   2.250   2.531   1.690 -1.2468 -1.5050  0.5807
 5956SOL     OW19308   1.935   4.615  10.057 -0.1076  0.6293 -0.4830
 5956SOL    HW119309   1.853   4.591  10.015 -0.7040  1.8877 -0.1028
 5956SOL    HW219310   2.003   4.586   9.997 -0.8518 -0.0499 -1.0030
 5957SOL     OW19311   7.124   7.004   1.798 -0.2570  0.3424  0.1535
 5957SOL    HW119312   7.033   7.030   1.780 -0.9478 -0.7323  1.7992
 5957SOL    HW219313   7.127   6.993   1.893  1.1655 -1.1682 -0.0232
 5958SOL     OW19314   7.377   2.901   1.729  0.3902 -0.2457  0.5104
 5958SOL    HW119315   7.312   2.872   1.665  0.0456 -2.2287  1.6715
 5958SOL    HW219316   7.324   2.946   1.796  0.7135  1.5371 -0.3630
 5959SOL     OW19317   3.081   1.523   5.302 -0.1017  0.5544  0.3746
 5959SOL    HW119318   3.048   1.496   5.387  0.6204  0.8901  0.7755
 5959SOL    HW219319   3.004   1.523   5.244 -0.6640  0.6677  1.1122
 5960SOL     OW19320   1.518   2.857   1.329  0.3359  0.0481  0.0747
 5960SOL    HW119321   1.528   2.799   1.404  0.1095 -1.4862 -1.0192
 5960SOL    HW219322   1.440   2.824   1.284  0.7193  0.6377 -1.0686
 5961SOL     OW19323   7.023   6.872   1.110  0.2664 -0.0832  0.0280
 5961SOL    HW119324   7.028   6.778   1.091  0.7825 -0.0076 -0.2362
 5961SOL    HW219325   7.083   6.885   1.184  0.6845  0.1322 -0.3398
 5962SOL     OW19326   0.129   5.611   0.765 -0.5068  0.1385  1.0627
 5962SOL    HW119327   0.121   5.559   0.685 -1.4062  2.4594 -0.5027
 5962SOL    HW219328   0.039   5.638   0.784 -0.1411  0.6189  2.1382
 5963SOL     OW19329   0.901   1.613   2.282 -0.2016  0.2681 -0.1704
 5963SOL    HW119330   0.936   1.526   2.262  2.6780  0.6352  2.3742
 5963SOL    HW219331   0.867   1.605   2.371 -0.3071  1.6258 -0.0594
 5964SOL     OW19332   1.650   2.273   8.705 -0.2270 -0.2539 -0.5398
 5964SOL    HW119333   1.655   2.356   8.657  0.9746  0.6662  1.0656
 5964SOL    HW219334   1.714   2.283   8.776  0.2896 -2.7490 -0.5658
 5965SOL     OW19335   1.533   6.185   5.316 -0.2052  0.4262 -0.1118
 5965SOL    HW119336   1.543   6.090   5.320 -1.5440  0.2751  0.2432
 5965SOL    HW219337   1.584   6.218   5.390 -0.9933 -0.1468  0.7061
 5966SOL     OW19338   5.297   3.674   9.529 -0.5969  0.3071 -0.0299
 5966SOL    HW119339   5.259   3.731   9.463 -0.6604  1.2658  0.7997
 5966SOL    HW219340   5.388   3.703   9.537 -0.8573  0.9091  1.0115
 5967SOL     OW19341   0.526   7.967   8.093 -0.3260  0.2207  0.6108
 5967SOL    HW119342   0.543   8.024   8.168 -0.4623 -0.9380  1.5568
 5967SOL    HW219343   0.613   7.941   8.063 -0.2775  0.4673  0.5339
 5968SOL     OW19344   5.178   1.827   2.821 -0.2379 -0.0044  0.0645
 5968SOL    HW119345   5.224   1.749   2.791  0.3562  0.5424 -0.4611
 5968SOL    HW219346   5.129   1.857   2.745 -0.4466  0.1573  0.2587
 5969SOL     OW19347   3.808   7.124   1.260 -0.5541  0.0805 -0.0790
 5969SOL    HW119348   3.834   7.131   1.352  1.2180 -1.8172 -0.3355
 5969SOL    HW219349   3.713   7.117   1.261 -0.6564  1.3973  1.4909
 5970SOL     OW19350   7.844   4.824   0.154 -0.2303  0.0170  0.7402
 5970SOL    HW119351   7.831   4.806   0.061  1.2958  0.4456  0.4111
 5970SOL    HW219352   7.930   4.786   0.173 -0.5956 -0.1982  2.0186
 5971SOL     OW19353   3.570   0.365  11.203 -0.2445  0.8576 -0.4822
 5971SOL    HW119354   3.510   0.377  11.129  0.1102  0.8770 -0.7705
 5971SOL    HW219355   3.657   0.367  11.164 -0.0970 -0.7856 -0.2760
 5972SOL     OW19356   5.589   0.670   9.780  0.3962 -0.3160  0.1899
 5972SOL    HW119357   5.684   0.672   9.782  0.3973  0.7295 -0.2848
 5972SOL    HW219358   5.561   0.728   9.851  0.1610  1.2838 -1.1417
 5973SOL     OW19359   5.809   7.416   1.205  0.2457  0.3341  0.2120
 5973SOL    HW119360   5.898   7.451   1.200  0.4277 -0.2587 -1.7911
 5973SOL    HW219361   5.762   7.463   1.136 -0.3012 -1.1270 -0.4587
 5974SOL     OW19362   2.600   3.941  11.319 -0.2405  0.4093  0.0720
 5974SOL    HW119363   2.599   3.874  11.251 -2.2500  1.2644 -0.8274
 5974SOL    HW219364   2.514   3.935  11.361 -0.5448  2.4570 -0.1343
 5975SOL     OW19365   3.524   7.455   1.693 -0.2981 -0.0814 -0.1502
 5975SOL    HW119366   3.538   7.387   1.759 -1.2619  0.6223  0.8339
 5975SOL    HW219367   3.466   7.518   1.736  1.3177  1.8820 -0.6456
 5976SOL     OW19368   0.980   1.022   6.859  0.1319 -0.2539  0.3997
 5976SOL    HW119369   1.072   1.042   6.875  0.7709 -0.3115 -2.6310
 5976SOL    HW219370   0.971   0.929   6.879 -0.2009  0.3913  3.9402
 5977SOL     OW19371   2.948   0.475   0.595 -0.0018  0.2575 -0.2084
 5977SOL    HW119372   2.957   0.401   0.535 -0.5318  1.0848 -1.3602
 5977SOL    HW219373   2.859   0.507   0.579  0.5574  1.7446 -0.4817
 5978SOL     OW19374   7.660   4.831   7.707 -0.6459  0.1127  0.1311
 5978SOL    HW119375   7.641   4.917   7.670 -0.5153  1.1112  2.2331
 5978SOL    HW219376   7.730   4.796   7.651  0.4288  2.0828  0.1402
 5979SOL     OW19377   1.526   0.789   1.292 -0.1916 -0.0910 -0.0838
 5979SOL    HW119378   1.575   0.820   1.215  2.2485 -2.0096  0.5910
 5979SOL    HW219379   1.582   0.811   1.366 -1.8999  0.5275  1.0789
 5980SOL     OW19380   5.840   7.768   2.655 -0.0257  0.5536  0.1416
 5980SOL    HW119381   5.898   7.767   2.578 -0.4581  0.9220 -0.1982
 5980SOL    HW219382   5.867   7.692   2.706  1.2855  1.1476  0.3918
 5981SOL     OW19383   2.656   5.321   3.376  0.1866 -0.6162  0.1140
 5981SOL    HW119384   2.665   5.236   3.420  2.9932 -0.4343  0.0866
 5981SOL    HW219385   2.745   5.341   3.345 -0.6595  1.7474 -0.9940
 5982SOL     OW19386   3.611   5.770   7.216 -0.6743 -0.0709 -0.3337
 5982SOL    HW119387   3.546   5.783   7.285 -1.9178  0.9873 -1.6613
 5982SOL    HW219388   3.609   5.850   7.165  0.7920 -0.5184 -1.1573
 5983SOL     OW19389   4.152   2.181   8.420 -0.7035 -0.1900  0.1773
 5983SOL    HW119390   4.190   2.163   8.506  0.3004 -0.1520 -0.2484
 5983SOL    HW219391   4.103   2.263   8.432  1.0014  0.8698  0.2707
 5984SOL     OW19392   6.968   2.324   7.883 -0.0931 -0.0792 -0.3095
 5984SOL    HW119393   6.969   2.400   7.941  2.0064 -1.2219  1.2841
 5984SOL    HW219394   7.006   2.356   7.801  1.5637  0.4325  0.6226
 5985SOL     OW19395   4.317   0.608  10.564 -0.1374 -0.4304 -0.3356
 5985SOL    HW119396   4.255   0.566  10.504 -0.2361 -0.7599 -0.0034
 5985SOL    HW219397   4.399   0.609  10.515 -0.0267 -1.4022 -0.1945
 5986SOL     OW19398   0.440   5.246   1.030 -0.1159  0.3008  0.5916
 5986SOL    HW119399   0.522   5.203   1.057 -0.5056 -0.2257  0.9484
 5986SOL    HW219400   0.381   5.174   1.011 -0.6173  0.6822  0.6960
 5987SOL     OW19401   1.924   1.383   0.713 -0.2022 -0.0150 -0.8077
 5987SOL    HW119402   1.883   1.465   0.685 -0.1070  0.5705  0.7013
 5987SOL    HW219403   1.997   1.410   0.769  0.4594 -1.1175 -1.0915
 5988SOL     OW19404   2.026   0.370   2.027  0.0740 -0.0163 -0.9630
 5988SOL    HW119405   1.958   0.369   2.094 -0.3100 -1.4439 -1.3431
 5988SOL    HW219406   2.064   0.458   2.032 -1.0487  0.4299  0.0012
 5989SOL     OW19407   3.612   6.558   6.552  0.4891 -0.4120  0.0736
 5989SOL    HW119408   3.623   6.532   6.644  1.4764  0.7829  0.3315
 5989SOL    HW219409   3.519   6.546   6.535 -0.2656  1.8056  2.0717
 5990SOL     OW19410   2.226   0.080   2.432 -0.3484  0.1757 -0.0426
 5990SOL    HW119411   2.319   0.101   2.419 -0.0948 -1.9121 -2.2266
 5990SOL    HW219412   2.213   0.093   2.526  1.9822  1.1357  0.2336
 5991SOL     OW19413   2.701   6.380   5.313  0.3879 -0.2947  0.1687
 5991SOL    HW119414   2.668   6.363   5.401 -1.3904 -1.7335 -0.6869
 5991SOL    HW219415   2.629   6.353   5.255  0.7845  2.2408 -1.7048
 5992SOL     OW19416   4.042   5.640   7.214 -0.1777 -0.1716 -0.7520
 5992SOL    HW119417   4.116   5.692   7.184  1.4182 -1.2387  1.1352
 5992SOL    HW219418   4.067   5.549   7.196 -1.0324 -0.5595 -0.0672
 5993SOL     OW19419   2.457   5.556   1.838 -0.3164 -0.0710 -0.1443
 5993SOL    HW119420   2.499   5.534   1.921 -1.2952 -1.0155  0.1185
 5993SOL    HW219421   2.530   5.559   1.775  0.5147  1.3144  0.8436
 5994SOL     OW19422   2.761   4.746   9.034  0.1696  0.1094 -0.2863
 5994SOL    HW119423   2.821   4.768   9.106 -1.0441  0.0312  0.7858
 5994SOL    HW219424   2.692   4.812   9.039 -1.1154 -1.2005  0.0718
 5995SOL     OW19425   1.073   5.813   0.040  0.0424  0.0690 -0.6510
 5995SOL    HW119426   1.130   5.758   0.094  0.7510  0.6337 -0.8057
 5995SOL    HW219427   1.012   5.852   0.103 -1.6923 -2.2587 -0.7300
 5996SOL     OW19428   5.935   3.926  11.710 -0.2128  0.2795  0.0882
 5996SOL    HW119429   5.973   4.010  11.681  2.2690 -0.4491  0.9436
 5996SOL    HW219430   5.915   3.940  11.803 -1.3819  0.4089 -0.1709
 5997SOL     OW19431   2.134   3.460   0.414 -0.2969 -0.1389  0.4706
 5997SOL    HW119432   2.135   3.390   0.479  0.1167 -0.2191  0.3804
 5997SOL    HW219433   2.107   3.417   0.333 -0.5582 -0.0914  0.5343
 5998SOL     OW19434   0.140   1.388   3.174  0.0147  0.0089 -0.7728
 5998SOL    HW119435   0.206   1.330   3.138  0.1952 -0.1845 -0.1527
 5998SOL    HW219436   0.181   1.475   3.173  0.8840 -0.3180  0.9544
 5999SOL     OW19437   1.920   2.770   3.754 -0.0858 -0.3506  0.0478
 5999SOL    HW119438   1.960   2.856   3.742 -1.8737  0.6360  0.7529
 5999SOL    HW219439   1.946   2.720   3.676  3.3378 -0.2025  0.9393
 6000SOL     OW19440   2.801   1.393  12.274 -0.0044  0.1679 -0.0042
 6000SOL    HW119441   2.718   1.349  12.255 -0.0168  0.0855  0.2339
 6000SOL    HW219442   2.859   1.368  12.202  0.7776 -2.2482  1.3552
 6001SOL     OW19443   2.362   7.028   7.531 -0.3414 -0.0144  0.2073
 6001SOL    HW119444   2.327   7.013   7.443 -0.9596  1.9736  0.0775
 6001SOL    HW219445   2.341   6.947   7.578  1.7303 -1.9656 -1.9325
 6002SOL     OW19446   2.207   0.388  12.346 -0.1982  0.0887  0.0568
 6002SOL    HW119447   2.126   0.412  12.302  0.1800  0.4714 -0.4464
 6002SOL    HW219448   2.196   0.420  12.435 -1.1645 -1.1170  0.3882
 6003SOL     OW19449   6.880   7.221   9.245  0.1363  0.4535 -0.2641
 6003SOL    HW119450   6.944   7.151   9.254 -0.4337 -0.1468 -0.7788
 6003SOL    HW219451   6.873   7.235   9.150  0.3735  1.3311 -0.1595
 6004SOL     OW19452   3.092   1.756   5.545 -0.4726  0.2398 -0.3933
 6004SOL    HW119453   3.014   1.711   5.512 -0.8551  0.4273  0.2215
 6004SOL    HW219454   3.162   1.732   5.484 -0.8884 -0.3730 -0.6405
 6005SOL     OW19455   0.762   6.998   2.722  0.1019 -0.3770 -0.2564
 6005SOL    HW119456   0.671   6.989   2.695 -0.3276 -1.8567  1.5217
 6005SOL    HW219457   0.758   7.024   2.813  1.4552 -0.5052 -0.1362
 6006SOL     OW19458   2.273   2.594   4.390 -0.6914 -0.5605 -0.0294
 6006SOL    HW119459   2.180   2.609   4.410 -0.4521  0.6345  0.2816
 6006SOL    HW219460   2.317   2.672   4.423  0.4091 -1.0264 -0.3582
 6007SOL     OW19461   0.297   2.568  10.019  0.4152  0.0528 -0.2763
 6007SOL    HW119462   0.378   2.538  10.060  0.9919 -1.6690 -2.5284
 6007SOL    HW219463   0.228   2.540  10.080  1.3787 -0.1870  0.7313
 6008SOL     OW19464   0.778   4.849   6.228  0.2672  0.0985 -0.0097
 6008SOL    HW119465   0.820   4.905   6.293  0.6819  0.9247 -0.9578
 6008SOL    HW219466   0.815   4.877   6.145  1.7068 -2.6813 -0.4098
 6009SOL     OW19467   7.006   5.563   6.722  0.0704 -0.2802  0.2353
 6009SOL    HW119468   7.042   5.628   6.661 -0.5840  0.5094  0.6661
 6009SOL    HW219469   7.081   5.539   6.777  0.2974  0.2041  0.1480
 6010SOL     OW19470   5.556   2.221   3.062  0.7156 -0.5633 -0.1405
 6010SOL    HW119471   5.552   2.126   3.067  2.1577 -0.5686  2.2186
 6010SOL    HW219472   5.464   2.249   3.069  0.1019 -1.7218 -2.3439
 6011SOL     OW19473   2.682   0.060   9.294  0.6864 -0.2327 -0.1063
 6011SOL    HW119474   2.692   0.059   9.199  0.9378 -0.7005 -0.0781
 6011SOL    HW219475   2.771   0.066   9.328  0.6068 -0.2173  0.1027
 6012SOL     OW19476   5.628   3.036   2.015 -0.4268  0.1800 -0.3307
 6012SOL    HW119477   5.668   3.112   2.057 -1.0380  0.6247 -0.5323
 6012SOL    HW219478   5.662   2.961   2.063  0.0141  0.5975  0.0139
 6013SOL     OW19479   5.969   3.628   2.664  0.4638 -0.0894 -0.0437
 6013SOL    HW119480   5.963   3.580   2.747 -1.3387  0.7172  0.3366
 6013SOL    HW219481   5.981   3.719   2.690  1.5256 -0.0273 -0.7166
 6014SOL     OW19482   3.654   2.186   7.589  0.2718  0.2837  0.8081
 6014SOL    HW119483   3.611   2.114   7.636  0.2418  1.0955  2.0563
 6014SOL    HW219484   3.688   2.145   7.509 -1.7596 -0.6371  0.3385
 6015SOL     OW19485   3.459   2.110   0.406 -0.0860  0.2117 -0.4722
 6015SOL    HW119486   3.464   2.183   0.344  0.1938  0.3457 -0.2981
 6015SOL    HW219487   3.543   2.113   0.453 -0.7578  0.8602  0.7374
 6016SOL     OW19488   5.502   0.333   1.852 -0.1720  0.1309  0.7592
 6016SOL    HW119489   5.550   0.253   1.873  1.4306  1.2609  1.6476
 6016SOL    HW219490   5.457   0.356   1.934  0.3454  0.7673  0.8715
 6017SOL     OW19491   1.955   4.305  11.050 -0.3189  0.0143  0.1683
 6017SOL    HW119492   1.929   4.387  11.092  0.7653  0.0092  0.8884
 6017SOL    HW219493   1.883   4.244  11.068 -1.2658  0.8769 -0.6211
 6018SOL     OW19494   6.473   5.848   2.550 -0.2139  0.1106  0.0331
 6018SOL    HW119495   6.469   5.866   2.456 -1.4762  0.2525  0.0939
 6018SOL    HW219496   6.479   5.935   2.590  0.4645  0.0438  0.0919
 6019SOL     OW19497   7.139   2.619   2.180 -0.4850  0.1541  0.8469
 6019SOL    HW119498   7.180   2.536   2.205  0.4756  0.7839  1.4149
 6019SOL    HW219499   7.105   2.602   2.092  0.8386 -0.4644  0.4162
 6020SOL     OW19500   6.069   3.545  10.316 -0.6917 -0.2415  0.0638
 6020SOL    HW119501   6.018   3.587  10.247 -0.3083  1.5865  0.8533
 6020SOL    HW219502   6.156   3.533  10.279 -0.1127  1.9118  0.5757
 6021SOL     OW19503   2.600   7.349  10.624  0.2423 -0.2592  0.0306
 6021SOL    HW119504   2.551   7.268  10.609 -1.3250  0.7036 -0.2844
 6021SOL    HW219505   2.583   7.402  10.547  0.0706  0.9345  0.8611
 6022SOL     OW19506   7.028   0.723  10.610 -0.8251 -0.4134 -0.0459
 6022SOL    HW119507   6.965   0.795  10.608  0.5951  0.9231  1.0245
 6022SOL    HW219508   7.072   0.726  10.525  0.1670  0.9037  0.4814
 6023SOL     OW19509   1.815   3.277   0.402 -0.0910 -0.8968  0.1230
 6023SOL    HW119510   1.770   3.239   0.477  0.1116 -1.8252 -0.2178
 6023SOL    HW219511   1.902   3.239   0.404 -0.0481 -0.8437 -0.5258
 6024SOL     OW19512   6.421   5.096   3.177  0.0328 -0.3023 -0.3869
 6024SOL    HW119513   6.474   5.046   3.238  0.0219 -0.0523 -0.1735
 6024SOL    HW219514   6.443   5.060   3.091 -0.2474 -0.9223 -0.2020
 6025SOL     OW19515   0.041   6.301   1.739 -0.1050 -0.2311 -0.1173
 6025SOL    HW119516   0.003   6.218   1.713  2.3030 -1.5017  0.1038
 6025SOL    HW219517   0.112   6.316   1.676 -0.8116  1.9568 -0.4750
 6026SOL     OW19518   5.318   5.872   8.316  0.0321  0.1283  0.3121
 6026SOL    HW119519   5.257   5.816   8.364 -0.3203 -0.6658 -0.9868
 6026SOL    HW219520   5.261   5.929   8.264  0.4004  0.6332  0.4633
 6027SOL     OW19521   6.671   1.311   0.778  0.1329 -0.0810  0.5347
 6027SOL    HW119522   6.736   1.331   0.710  1.2067 -2.2415  0.8226
 6027SOL    HW219523   6.604   1.260   0.732 -0.5920  0.8427  0.5531
 6028SOL     OW19524   1.217   7.264   0.652 -0.1279 -0.2421  0.0662
 6028SOL    HW119525   1.195   7.184   0.700  1.3937 -0.3543  0.6475
 6028SOL    HW219526   1.132   7.300   0.625 -1.0805 -0.3147  2.6408
 6029SOL     OW19527   5.608   0.933   9.624 -0.4499  0.2107 -0.2550
 6029SOL    HW119528   5.682   0.892   9.579  0.8830  2.7671 -0.6186
 6029SOL    HW219529   5.580   0.868   9.688  1.6079 -1.1745 -0.6453
 6030SOL     OW19530   5.598   5.609   3.405 -0.3121 -0.0054  0.0352
 6030SOL    HW119531   5.668   5.661   3.364 -0.7699  0.9951  0.4918
 6030SOL    HW219532   5.616   5.615   3.499  2.0308 -4.0945  0.0926
 6031SOL     OW19533   0.734   2.061   8.946 -0.1406 -0.3487 -0.2119
 6031SOL    HW119534   0.711   2.153   8.958  0.0362 -0.1580 -1.2347
 6031SOL    HW219535   0.806   2.046   9.007 -0.2180  0.1655  0.0096
 6032SOL     OW19536   6.855   3.626  11.894  0.3512 -0.3612  0.1916
 6032SOL    HW119537   6.816   3.545  11.926 -0.5546 -0.9387 -2.1199
 6032SOL    HW219538   6.928   3.644  11.954 -0.1728 -2.2136  1.4535
 6033SOL     OW19539   2.180   6.796   3.233  0.1562 -0.6530 -0.2580
 6033SOL    HW119540   2.099   6.847   3.241  0.6340  0.0665  0.1905
 6033SOL    HW219541   2.219   6.800   3.321  0.7386 -0.8836 -0.5014
 6034SOL     OW19542   3.802   3.243   1.229 -0.0690 -0.5259 -0.3320
 6034SOL    HW119543   3.793   3.282   1.316  0.1710 -0.9165 -0.1308
 6034SOL    HW219544   3.836   3.315   1.175 -0.7733 -0.1172 -0.2429
 6035SOL     OW19545   4.032   1.676   7.321  0.0166 -0.1294 -0.7422
 6035SOL    HW119546   3.986   1.597   7.349  1.7818 -0.7138  0.7407
 6035SOL    HW219547   4.082   1.648   7.244  0.3561 -0.3686 -0.4383
 6036SOL     OW19548   7.689   2.655   0.659 -0.2078  0.2046 -0.1224
 6036SOL    HW119549   7.701   2.709   0.737 -2.1273 -1.2704  1.2986
 6036SOL    HW219550   7.647   2.712   0.595  0.0768  1.0467  0.4352
 6037SOL     OW19551   4.510   7.039  10.985  0.5916 -0.1525  1.0283
 6037SOL    HW119552   4.508   7.100  10.912 -0.6984  0.5999  1.6475
 6037SOL    HW219553   4.477   7.089  11.059  0.5069 -1.3014  1.7995
 6038SOL     OW19554   6.420   0.731   9.443  0.2714  0.1868  0.5486
 6038SOL    HW119555   6.384   0.675   9.512 -2.1656  0.9288 -0.0291
 6038SOL    HW219556   6.436   0.814   9.486 -0.4782  0.4031  0.4263
 6039SOL     OW19557   7.223   5.143   0.522 -0.4999  0.0058 -0.2195
 6039SOL    HW119558   7.256   5.186   0.601 -0.8466 -2.1029  1.1440
 6039SOL    HW219559   7.129   5.161   0.523 -0.5712 -0.3660  0.0943
 6040SOL     OW19560   7.420   4.044   9.303  0.5768 -0.5762 -0.8480
 6040SOL    HW119561   7.350   4.057   9.366  0.4128 -0.9287 -0.9562
 6040SOL    HW219562   7.395   4.097   9.227  0.9125  0.0700 -0.5150
 6041SOL     OW19563   6.884   1.945   0.847 -0.4995 -0.1224 -0.3110
 6041SOL    HW119564   6.965   1.907   0.880 -0.1358  1.5404  0.8532
 6041SOL    HW219565   6.902   1.964   0.755  0.3083 -0.1123 -0.1573
 6042SOL     OW19566   1.914   0.599   6.120  0.1317 -0.2565 -0.6640
 6042SOL    HW119567   1.863   0.519   6.131  1.0412 -0.6112  1.3859
 6042SOL    HW219568   1.894   0.652   6.197  2.2034 -0.0853 -0.1842
 6043SOL     OW19569   3.635   7.712   9.831  0.8164 -0.7705  0.2480
 6043SOL    HW119570   3.563   7.649   9.829  3.2729 -3.8389  0.4984
 6043SOL    HW219571   3.679   7.696   9.915  2.1339  0.5861 -0.1318
 6044SOL     OW19572   5.147   4.656   4.344  0.5360  0.4852  0.0030
 6044SOL    HW119573   5.101   4.712   4.406  0.4308 -0.9044  1.2494
 6044SOL    HW219574   5.183   4.716   4.279  0.8451  2.0294  1.5342
 6045SOL     OW19575   6.920   5.950   6.191 -0.4920  0.2150  0.4756
 6045SOL    HW119576   6.957   6.023   6.141 -2.0877 -0.1484 -1.3588
 6045SOL    HW219577   6.872   5.992   6.263 -1.7740  1.0652 -0.8173
 6046SOL     OW19578   6.471   4.331   2.446  0.3598 -0.4673  0.0858
 6046SOL    HW119579   6.501   4.282   2.369  0.5069 -0.3828  0.0891
 6046SOL    HW219580   6.388   4.370   2.419  1.8895  2.2189 -1.1497
 6047SOL     OW19581   0.627   4.703   6.433  0.7210 -0.1297 -0.0558
 6047SOL    HW119582   0.715   4.723   6.463  0.4886  1.1711 -0.1676
 6047SOL    HW219583   0.628   4.723   6.340 -0.1335  1.6681  0.2676
 6048SOL     OW19584   7.058   2.907   4.819  0.3437  0.0724 -0.3010
 6048SOL    HW119585   7.045   2.889   4.912  1.0670  0.3492 -0.1387
 6048SOL    HW219586   7.076   3.001   4.815  1.8276 -0.2011 -0.5389
 6049SOL     OW19587   3.874   5.284   9.910  0.1579 -0.7158 -0.0635
 6049SOL    HW119588   3.796   5.303   9.961  0.6123 -0.2876  0.4839
 6049SOL    HW219589   3.842   5.233   9.835 -0.8104  0.5348 -0.5388
 6050SOL     OW19590   2.313   7.011  11.402  0.6641  0.0145 -0.0138
 6050SOL    HW119591   2.336   7.100  11.427  0.7641 -0.3086  1.0771
 6050SOL    HW219592   2.395   6.961  11.410  0.3303 -0.4392  0.6282
 6051SOL     OW19593   3.941   6.437   6.106  0.6871 -0.4886 -0.6892
 6051SOL    HW119594   3.931   6.433   6.202  2.3286  0.1699 -0.4544
 6051SOL    HW219595   3.929   6.347   6.077  0.6154 -0.7742  0.1963
 6052SOL     OW19596   2.139   4.962   6.183 -0.8376 -0.8726  0.5749
 6052SOL    HW119597   2.108   4.987   6.096  0.5399  1.3040  0.6291
 6052SOL    HW219598   2.102   5.028   6.242  1.3704  0.0570  1.0281
 6053SOL     OW19599   6.934   6.269   2.908 -0.1779  0.1221 -0.2743
 6053SOL    HW119600   6.887   6.224   2.839 -0.9772  1.6931 -0.7892
 6053SOL    HW219601   7.023   6.279   2.874  0.0758 -1.2301 -0.0534
 6054SOL     OW19602   0.698   2.288   0.449 -0.5110  0.2129  0.2343
 6054SOL    HW119603   0.651   2.320   0.526 -0.4292  0.4295  0.1947
 6054SOL    HW219604   0.631   2.241   0.399 -0.5264 -0.0767  0.5181
 6055SOL     OW19605   5.742   6.444   6.670  0.4053 -0.0702  0.3490
 6055SOL    HW119606   5.737   6.404   6.757  0.3979 -0.7300  0.0515
 6055SOL    HW219607   5.714   6.534   6.684 -0.1128 -0.3102  0.9417
 6056SOL     OW19608   1.352   2.467   8.364 -0.0619 -0.0062  0.1278
 6056SOL    HW119609   1.290   2.409   8.320 -1.2060  0.6233  0.8692
 6056SOL    HW219610   1.302   2.546   8.382  0.9419  0.4912  0.8200
 6057SOL     OW19611   3.455   5.995   2.338  0.1365 -0.7381 -0.0659
 6057SOL    HW119612   3.532   5.941   2.323  0.3238 -0.8079  1.0543
 6057SOL    HW219613   3.408   5.994   2.255  1.2652 -0.8056 -0.7237
 6058SOL     OW19614   7.151   6.761  12.290  0.1766 -0.3989 -0.1093
 6058SOL    HW119615   7.060   6.790  12.296  0.0857 -0.7022 -0.0162
 6058SOL    HW219616   7.199   6.824  12.343  0.2027  0.5243 -1.1866
 6059SOL     OW19617   5.345   6.207   9.769  0.4139  0.2784  0.4866
 6059SOL    HW119618   5.384   6.244   9.848 -1.3709  0.1223  1.4905
 6059SOL    HW219619   5.371   6.267   9.699  2.3096  0.2292  1.1058
 6060SOL     OW19620   7.800   5.907  12.023  0.4210 -0.2828  0.0087
 6060SOL    HW119621   7.736   5.876  12.087  0.3539 -1.0988 -0.4384
 6060SOL    HW219622   7.884   5.871  12.052  0.2343 -1.5314 -0.8975
 6061SOL     OW19623   5.011   1.165   1.677 -0.9191  0.5654  1.0121
 6061SOL    HW119624   4.942   1.153   1.613 -0.8816  2.6171  0.5516
 6061SOL    HW219625   5.083   1.111   1.645 -0.9339  1.4789 -0.6405
 6062SOL     OW19626   2.632   0.933  10.259  0.4106 -0.6423  0.1431
 6062SOL    HW119627   2.613   1.026  10.265  0.3716 -0.6554  0.2180
 6062SOL    HW219628   2.606   0.897  10.344  1.0071 -0.6135  0.3434
 6063SOL     OW19629   7.650   4.221   1.073 -0.4284  0.0262  0.6264
 6063SOL    HW119630   7.706   4.244   1.147 -1.6500  1.6743  1.1106
 6063SOL    HW219631   7.647   4.126   1.073  2.8040 -0.1705  0.1986
 6064SOL     OW19632   3.010   5.139   0.814  0.2437  0.1470 -0.7229
 6064SOL    HW119633   3.043   5.153   0.903 -1.7907  1.8525 -0.1378
 6064SOL    HW219634   3.038   5.051   0.791 -1.4485 -1.4816  2.7128
 6065SOL     OW19635   7.387   7.679   8.352  0.1925  0.8172 -0.8001
 6065SOL    HW119636   7.294   7.699   8.361 -0.0388 -0.3157 -0.4986
 6065SOL    HW219637   7.427   7.762   8.327 -0.5304  1.9562  1.4663
 6066SOL     OW19638   7.223   1.948   0.457  0.6483 -0.1225  0.1820
 6066SOL    HW119639   7.285   2.006   0.500  0.4483  1.1031 -1.1245
 6066SOL    HW219640   7.257   1.937   0.368  0.3270 -1.4912  0.1958
 6067SOL     OW19641   0.701   0.899   6.083 -0.1017 -0.7246  0.5197
 6067SOL    HW119642   0.784   0.899   6.131 -0.3860 -0.6690  1.0309
 6067SOL    HW219643   0.673   0.808   6.083  0.0397 -0.7665  0.2085
 6068SOL     OW19644   5.522   1.133   0.381 -0.1160  0.2075  0.2573
 6068SOL    HW119645   5.440   1.177   0.402  0.6294  1.0885  1.5084
 6068SOL    HW219646   5.513   1.106   0.290 -1.1563  1.7610 -0.1337
 6069SOL     OW19647   2.644   7.139   2.907  0.3186 -0.2989  0.2026
 6069SOL    HW119648   2.723   7.127   2.854  0.9681  2.3697  0.4377
 6069SOL    HW219649   2.574   7.154   2.843  0.3470 -0.8024  0.0458
 6070SOL     OW19650   3.650   7.029   2.143  0.1712 -0.5314  0.3719
 6070SOL    HW119651   3.625   6.944   2.179 -0.0137 -0.5482  0.2070
 6070SOL    HW219652   3.567   7.077   2.136  0.1294 -0.7233 -0.5335
 6071SOL     OW19653   1.782   6.493   5.749 -0.2163  0.2751  1.4475
 6071SOL    HW119654   1.695   6.524   5.723 -0.4795  1.2137  3.2384
 6071SOL    HW219655   1.776   6.398   5.742 -0.8499  0.3903  0.0201
 6072SOL     OW19656   3.025   4.861   3.921  0.2985 -0.1908 -0.0374
 6072SOL    HW119657   2.940   4.882   3.959 -1.0661 -0.4191 -2.6968
 6072SOL    HW219658   3.087   4.868   3.994 -1.5297  2.8716  1.4445
 6073SOL     OW19659   2.162   4.458   0.021 -0.1831  0.0672  0.2108
 6073SOL    HW119660   2.080   4.427  -0.016 -0.3049  0.0640  0.4778
 6073SOL    HW219661   2.223   4.461  -0.053 -0.6579  0.9226 -0.1636
 6074SOL     OW19662   0.144   4.840   0.874 -0.2744  0.2669  0.3516
 6074SOL    HW119663   0.201   4.763   0.880  2.2335  2.0350  0.7521
 6074SOL    HW219664   0.081   4.818   0.805 -0.4867 -2.5983  1.3326
 6075SOL     OW19665   0.748   1.082   6.450  0.2044  0.8915  0.0939
 6075SOL    HW119666   0.681   1.124   6.504 -0.4014  0.3503 -0.2239
 6075SOL    HW219667   0.830   1.104   6.493 -0.3069 -0.3017  1.7711
 6076SOL     OW19668   7.629   2.619  11.921 -0.3840  0.7264 -0.8360
 6076SOL    HW119669   7.593   2.595  12.006  0.2293  4.2521  0.5743
 6076SOL    HW219670   7.560   2.596  11.859 -1.1092 -1.3497  0.6279
 6077SOL     OW19671   6.272   6.959   9.946 -0.2643 -0.4151  0.4490
 6077SOL    HW119672   6.238   7.003   9.868 -0.7113 -0.8691  0.3884
 6077SOL    HW219673   6.355   6.920   9.918  0.2605  0.5710  0.5603
 6078SOL     OW19674   6.510   0.616   5.575  0.2248  0.0716  0.1634
 6078SOL    HW119675   6.569   0.542   5.563 -0.4017 -0.3541 -0.3467
 6078SOL    HW219676   6.563   0.682   5.619  0.4776 -1.0779  1.6608
 6079SOL     OW19677   5.086   1.302   9.594  0.0402  0.2404  0.1116
 6079SOL    HW119678   5.058   1.230   9.538 -0.8084 -0.0273  0.8530
 6079SOL    HW219679   5.052   1.381   9.551  2.4242  0.4341 -1.6259
 6080SOL     OW19680   3.955   0.188   8.644 -0.6761 -0.0926  0.0404
 6080SOL    HW119681   4.006   0.245   8.702 -0.6455  0.3361 -0.3981
 6080SOL    HW219682   3.864   0.211   8.662 -0.6768 -0.1480  0.1076
 6081SOL     OW19683   2.059   7.393   4.573 -0.0279 -0.2105  0.0653
 6081SOL    HW119684   2.154   7.384   4.580  0.1931  1.8010  0.0967
 6081SOL    HW219685   2.040   7.366   4.483  0.5597 -0.6760  0.0688
 6082SOL     OW19686   2.971   6.601  12.380 -0.7691 -0.4641  0.2108
 6082SOL    HW119687   2.940   6.518  12.342  0.6604 -0.7541 -0.3540
 6082SOL    HW219688   2.943   6.596  12.471 -0.2742 -1.7985  0.3131
 6083SOL     OW19689   0.178   7.962  10.778  0.4837  0.0319 -0.0957
 6083SOL    HW119690   0.225   7.943  10.697  1.7060 -1.9639  1.0112
 6083SOL    HW219691   0.246   7.982  10.842 -0.2585 -0.9443  1.0583
 6084SOL     OW19692   7.072   5.160   1.186  0.2379  0.5780 -0.0900
 6084SOL    HW119693   7.052   5.068   1.204 -1.5744  1.0697  0.5652
 6084SOL    HW219694   7.168   5.162   1.179  0.2894 -1.4201 -0.5362
 6085SOL     OW19695   5.786   6.404   1.622 -0.2071 -0.0196 -0.2967
 6085SOL    HW119696   5.794   6.499   1.607  1.0740 -0.3277 -1.8629
 6085SOL    HW219697   5.872   6.378   1.655 -0.9007 -0.4853  1.2052
 6086SOL     OW19698   1.275   3.770  10.227 -0.6456  0.1151  0.0285
 6086SOL    HW119699   1.258   3.734  10.140 -0.7865 -1.6170  0.7209
 6086SOL    HW219700   1.286   3.864  10.213 -0.6943 -0.1213 -1.8428
 6087SOL     OW19701   5.564   1.276   3.577 -0.2748 -0.3818  0.0601
 6087SOL    HW119702   5.547   1.222   3.500 -0.7627 -0.0509 -0.0653
 6087SOL    HW219703   5.640   1.329   3.553 -2.3850  2.1657 -1.5041
 6088SOL     OW19704   5.241   6.954   3.633  0.2064  0.2508  0.4023
 6088SOL    HW119705   5.298   7.002   3.572 -1.4053  2.3099  0.4045
 6088SOL    HW219706   5.260   6.862   3.616  0.0476  0.7207 -3.0346
 6089SOL     OW19707   2.231   4.487   5.521  0.5110 -0.0068  0.3472
 6089SOL    HW119708   2.215   4.574   5.483  1.0068  0.2385  0.6958
 6089SOL    HW219709   2.163   4.478   5.588  0.5967  0.2002  0.4619
 6090SOL     OW19710   4.107   6.652   5.176  0.1253 -0.2957  0.6220
 6090SOL    HW119711   4.176   6.618   5.119  0.9210  0.0798  1.3408
 6090SOL    HW219712   4.055   6.710   5.119 -0.1809 -1.3045 -0.1570
 6091SOL     OW19713   6.270   2.570   3.251 -0.2304 -0.0230  0.3251
 6091SOL    HW119714   6.319   2.524   3.319 -0.0446 -0.8683 -0.3608
 6091SOL    HW219715   6.304   2.536   3.168 -0.5238  0.9069 -0.2024
 6092SOL     OW19716   6.412   5.832  11.940 -0.0281  0.1374  0.1235
 6092SOL    HW119717   6.485   5.880  11.903  0.0054  1.6418  1.9975
 6092SOL    HW219718   6.355   5.813  11.865  1.4472  0.3726 -1.1089
 6093SOL     OW19719   7.565   1.469   8.594 -0.1713  0.0631  0.2571
 6093SOL    HW119720   7.507   1.545   8.601 -2.5189 -1.6751  1.0337
 6093SOL    HW219721   7.506   1.394   8.595  2.0641 -1.8132 -0.2517
 6094SOL     OW19722   0.146   0.951   6.846  0.3206  0.1333 -0.6061
 6094SOL    HW119723   0.091   0.964   6.769 -1.5620  0.0484  0.6522
 6094SOL    HW219724   0.094   0.894   6.903  1.4171  0.6390  0.9695
 6095SOL     OW19725   7.656   5.759  11.632 -0.0060 -0.0857 -0.2252
 6095SOL    HW119726   7.635   5.745  11.540  0.1277  1.6924 -0.5553
 6095SOL    HW219727   7.573   5.744  11.678  0.3479 -2.9803 -0.3306
 6096SOL     OW19728   4.680   1.719   9.430  0.6939  0.0907  0.3102
 6096SOL    HW119729   4.762   1.721   9.480  0.8279 -1.0346  0.1525
 6096SOL    HW219730   4.641   1.805   9.446  1.7176  0.5088  0.6933
 6097SOL     OW19731   1.718   2.570  12.113  0.1692  0.4426 -0.0906
 6097SOL    HW119732   1.642   2.622  12.139 -0.0934 -0.4283  0.9849
 6097SOL    HW219733   1.704   2.485  12.156  1.5963  0.1740 -0.1207
 6098SOL     OW19734   2.905   7.819   7.911  0.2215  0.0364 -0.1939
 6098SOL    HW119735   2.938   7.895   7.862  1.3395 -0.6882 -0.6037
 6098SOL    HW219736   2.963   7.814   7.987 -1.0861  0.7529  0.8819
 6099SOL     OW19737   0.410   0.228   4.040 -0.0859  0.0563 -0.0070
 6099SOL    HW119738   0.365   0.276   4.109  0.5550  1.8438 -0.7915
 6099SOL    HW219739   0.409   0.286   3.965  0.4988 -1.2707 -1.0846
 6100SOL     OW19740   5.294   7.937  12.400  0.0199 -0.5203 -1.1120
 6100SOL    HW119741   5.383   7.946  12.364  0.1272 -1.5436 -1.1245
 6100SOL    HW219742   5.242   7.998  12.349  0.6950  0.0120 -1.1851
 6101SOL     OW19743   1.104   3.922   7.267 -0.1099 -0.6494  0.0770
 6101SOL    HW119744   1.018   3.903   7.304  0.1990  0.4592  1.4853
 6101SOL    HW219745   1.085   3.969   7.186 -0.8744  0.6265  0.9512
 6102SOL     OW19746   6.885   0.308   9.415  0.0670 -0.2959 -0.9487
 6102SOL    HW119747   6.924   0.221   9.409  1.5900  0.3503 -0.6138
 6102SOL    HW219748   6.860   0.329   9.324 -1.8217 -1.7146 -0.8166
 6103SOL     OW19749   7.014   3.659   5.782 -0.7450  0.0413 -0.8625
 6103SOL    HW119750   6.988   3.657   5.874  0.6225 -0.8192 -0.4658
 6103SOL    HW219751   7.089   3.719   5.779  0.3480 -1.2779 -1.0667
 6104SOL     OW19752   6.112   7.031   3.914  0.1679 -0.3025 -0.2901
 6104SOL    HW119753   6.126   7.087   3.990  0.0132 -0.1033 -0.4071
 6104SOL    HW219754   6.100   6.944   3.950  1.3687 -0.4284 -0.1592
 6105SOL     OW19755   7.887   1.399   6.386 -0.1254 -0.1356  0.4462
 6105SOL    HW119756   7.907   1.389   6.293 -0.5860 -1.7471  0.4820
 6105SOL    HW219757   7.821   1.469   6.390 -0.1041 -0.0612 -0.4379
 6106SOL     OW19758   5.085   3.611   1.527  0.1414 -0.3258 -0.8499
 6106SOL    HW119759   5.146   3.639   1.458 -0.3539 -1.4965 -1.8101
 6106SOL    HW219760   5.131   3.542   1.574  0.1533 -0.1116 -0.5425
 6107SOL     OW19761   7.523   5.737   6.451 -0.9408 -0.4253 -0.0026
 6107SOL    HW119762   7.457   5.716   6.385  1.5889 -2.6592 -2.0578
 6107SOL    HW219763   7.604   5.748   6.401  0.8199 -0.6685  2.6033
 6108SOL     OW19764   5.407   0.756  10.668 -0.0587 -0.2151  0.3562
 6108SOL    HW119765   5.363   0.760  10.583  0.0447 -0.1478  0.3059
 6108SOL    HW219766   5.451   0.671  10.669 -0.5117 -0.4551  0.5651
 6109SOL     OW19767   6.536   0.822   6.898 -0.0559 -0.5734  0.2017
 6109SOL    HW119768   6.494   0.832   6.984  0.9174 -1.1069  0.7719
 6109SOL    HW219769   6.512   0.900   6.849 -0.6893 -0.2943  0.9442
 6110SOL     OW19770   1.715   2.270  10.725 -0.0898  0.1211 -0.3504
 6110SOL    HW119771   1.706   2.354  10.681  1.2379  0.4349 -0.0611
 6110SOL    HW219772   1.732   2.208  10.654  0.3378  0.3400 -0.4420
 6111SOL     OW19773   1.772   1.444  11.703 -0.1822  0.1792 -0.0793
 6111SOL    HW119774   1.685   1.431  11.664 -0.6865  2.5297  0.1194
 6111SOL    HW219775   1.764   1.527  11.751  1.7125 -0.3958  1.3336
 6112SOL     OW19776   6.583   4.922   3.350 -0.3396 -0.5647  0.4722
 6112SOL    HW119777   6.668   4.953   3.380 -0.3669  0.2701 -0.2841
 6112SOL    HW219778   6.520   4.959   3.412 -0.4357  1.4912 -0.7416
 6113SOL     OW19779   0.984   4.101   7.715 -0.3414  0.1272 -0.3688
 6113SOL    HW119780   1.013   4.028   7.770 -2.2690  1.4499  2.6881
 6113SOL    HW219781   1.064   4.148   7.693  0.6949 -1.5528 -0.3636
 6114SOL     OW19782   6.670   7.923  10.054  0.4433  0.5826  0.2155
 6114SOL    HW119783   6.702   7.868  10.126 -0.8838  0.7904  1.0021
 6114SOL    HW219784   6.652   7.861   9.984 -2.4093 -0.3355  1.5656
 6115SOL     OW19785   0.543   5.338   0.375  0.0659  0.2482  0.1583
 6115SOL    HW119786   0.607   5.384   0.321 -1.5796  0.9201 -1.2935
 6115SOL    HW219787   0.501   5.406   0.428  1.2192 -0.3224  1.9187
 6116SOL     OW19788   2.813   3.465   3.927  0.0207  0.0431 -0.0261
 6116SOL    HW119789   2.907   3.455   3.916  0.3272  0.3089  1.9416
 6116SOL    HW219790   2.795   3.554   3.895  0.4623  0.0518 -0.2607
 6117SOL     OW19791   6.167   5.997   2.462  0.0428 -0.4877 -0.2239
 6117SOL    HW119792   6.174   5.913   2.416  0.9989 -0.2115 -0.6059
 6117SOL    HW219793   6.123   5.975   2.544  0.4406 -1.3955 -0.2331
 6118SOL     OW19794   7.520   2.794   2.163 -0.6166  0.1905  0.0429
 6118SOL    HW119795   7.498   2.789   2.256  2.0297  0.6045  0.7710
 6118SOL    HW219796   7.553   2.882   2.151 -0.3345 -0.0662 -1.1500
 6119SOL     OW19797   7.739   6.169   5.365  0.5383 -0.2368 -0.0829
 6119SOL    HW119798   7.750   6.225   5.442  1.0297 -0.0809 -0.2646
 6119SOL    HW219799   7.828   6.146   5.339  0.3458 -1.0511 -0.0502
 6120SOL     OW19800   1.448   3.192   2.001  0.0558 -0.0402  0.0030
 6120SOL    HW119801   1.540   3.176   1.976  0.2206  0.9117 -0.0171
 6120SOL    HW219802   1.398   3.145   1.934  0.5241  0.1511 -0.5000
 6121SOL     OW19803   6.382   6.432  10.877 -0.4472 -0.0082  0.1134
 6121SOL    HW119804   6.328   6.462  10.803 -0.4455 -3.0342 -1.2817
 6121SOL    HW219805   6.343   6.349  10.903  0.6287  0.1258  2.4112
 6122SOL     OW19806   4.019   6.671   7.184  0.7522  0.3416 -0.0318
 6122SOL    HW119807   4.078   6.632   7.119  0.2178  0.8512 -0.8499
 6122SOL    HW219808   3.947   6.608   7.192  0.9322  0.1694  0.2489
 6123SOL     OW19809   2.735   4.758   0.822 -0.4078 -0.4149 -0.1158
 6123SOL    HW119810   2.720   4.852   0.818 -1.8151 -0.6419 -0.6753
 6123SOL    HW219811   2.821   4.749   0.863 -1.1490  1.0394  1.9424
 6124SOL     OW19812   6.732   3.718   2.024  0.5570  0.3768  0.6173
 6124SOL    HW119813   6.682   3.723   2.106 -0.7250 -0.4811 -0.0903
 6124SOL    HW219814   6.694   3.786   1.968  0.1597 -0.2939  0.0640
 6125SOL     OW19815   4.929   5.445   0.607 -0.4594  0.5769 -0.1168
 6125SOL    HW119816   4.913   5.536   0.584  0.4859  0.3020 -2.0760
 6125SOL    HW219817   5.018   5.445   0.643  0.4532  0.1773 -2.2080
 6126SOL     OW19818   4.793   6.274   5.304  0.1525  0.4250 -0.1790
 6126SOL    HW119819   4.795   6.179   5.310 -2.3014  0.3271  0.3071
 6126SOL    HW219820   4.767   6.292   5.213 -0.2206  0.5976 -0.0401
 6127SOL     OW19821   1.130   7.535  11.938  0.3563 -0.8753 -0.6030
 6127SOL    HW119822   1.102   7.555  12.028  1.1008  1.5109 -0.8067
 6127SOL    HW219823   1.054   7.556  11.884  0.9724  1.2587 -0.7667
 6128SOL     OW19824   7.066   6.946   8.209  0.4270 -0.3571  0.2815
 6128SOL    HW119825   7.131   7.016   8.202 -0.8154  1.0450  1.8058
 6128SOL    HW219826   7.021   6.947   8.125 -0.8274  2.0809  0.8738
 6129SOL     OW19827   4.976   7.736   4.114 -0.3976  0.3554 -0.6971
 6129SOL    HW119828   5.057   7.722   4.065  0.5551  1.3343  0.5364
 6129SOL    HW219829   4.909   7.689   4.064  0.7529  0.3060 -2.2518
 6130SOL     OW19830   6.601   7.346   9.077 -0.0202  0.2453 -0.3282
 6130SOL    HW119831   6.671   7.333   9.013  0.8190  0.6552  0.4990
 6130SOL    HW219832   6.540   7.274   9.059 -0.0876  0.6567 -1.9350
 6131SOL     OW19833   3.257   2.612   1.095  0.0927  0.2597  0.5503
 6131SOL    HW119834   3.314   2.679   1.135  0.2042  0.1156  0.6320
 6131SOL    HW219835   3.186   2.663   1.055 -0.8595  0.3266  2.2405
 6132SOL     OW19836   6.664   6.071   1.441 -0.5247  0.3141 -0.1339
 6132SOL    HW119837   6.753   6.070   1.474 -0.5447  0.2361 -0.0816
 6132SOL    HW219838   6.673   6.092   1.348 -0.6145  2.9688  0.3711
 6133SOL     OW19839   1.694   1.529   6.561 -0.3851  0.0616 -0.8054
 6133SOL    HW119840   1.612   1.482   6.545 -0.3815 -0.2065 -0.0446
 6133SOL    HW219841   1.667   1.611   6.603 -0.1417 -1.0894  1.7739
 6134SOL     OW19842   2.149   3.036   2.646  0.6502  0.4105 -0.2532
 6134SOL    HW119843   2.202   3.115   2.658  2.2033 -0.3764 -1.5489
 6134SOL    HW219844   2.180   2.999   2.564 -0.8973 -0.9162 -0.2824
 6135SOL     OW19845   3.237   6.805   6.646  0.8239 -0.0418 -0.4431
 6135SOL    HW119846   3.261   6.714   6.662 -0.4730 -0.3468 -0.1183
 6135SOL    HW219847   3.226   6.844   6.733  1.6760  0.5260 -0.5751
 6136SOL     OW19848   2.431   3.187   0.667  0.0978 -0.0056 -0.1820
 6136SOL    HW119849   2.369   3.165   0.736 -1.4680  3.0318 -0.4481
 6136SOL    HW219850   2.513   3.146   0.694 -1.2797 -1.7570  1.6623
 6137SOL     OW19851   0.839   3.158   9.359  0.8070  0.7444 -0.5100
 6137SOL    HW119852   0.864   3.250   9.370  2.8167  0.2094 -0.1809
 6137SOL    HW219853   0.905   3.109   9.409 -0.6794 -0.8504 -0.0145
 6138SOL     OW19854   7.242   3.806   9.762 -0.2120 -0.2952  0.4553
 6138SOL    HW119855   7.309   3.740   9.782  0.5804  0.2015 -0.4744
 6138SOL    HW219856   7.206   3.830   9.847 -1.2206 -2.6317  0.7590
 6139SOL     OW19857   2.770   2.319  10.608  0.2025  0.5392  0.3345
 6139SOL    HW119858   2.810   2.388  10.659  0.0603  1.6105 -0.9447
 6139SOL    HW219859   2.781   2.347  10.517 -0.6967 -0.6610 -0.1711
 6140SOL     OW19860   7.950   7.260   1.963  0.2868  0.1428 -0.1753
 6140SOL    HW119861   7.956   7.238   2.056  0.3750 -0.1854 -0.2555
 6140SOL    HW219862   7.880   7.325   1.958  0.7592  0.6871  0.2036
 6141SOL     OW19863   3.483   5.311   2.408 -0.5716 -0.2063 -0.4049
 6141SOL    HW119864   3.520   5.277   2.326 -3.1211 -0.6005 -1.4774
 6141SOL    HW219865   3.473   5.235   2.464 -0.6216 -0.2456 -0.4673
 6142SOL     OW19866   0.807   7.185   0.831  1.2370 -0.2584  0.0923
 6142SOL    HW119867   0.776   7.252   0.893  0.0002 -2.1635  1.6675
 6142SOL    HW219868   0.797   7.226   0.745 -0.6593  1.1796  0.9004
 6143SOL     OW19869   7.249   0.001   9.309  0.1062  0.3905  0.2641
 6143SOL    HW119870   7.318  -0.049   9.353  0.1719 -0.2075 -0.5010
 6143SOL    HW219871   7.295   0.056   9.246 -0.0997  0.1268 -0.1194
 6144SOL     OW19872   4.297   5.756   0.682  0.2826  0.0479 -0.0087
 6144SOL    HW119873   4.262   5.768   0.593  1.3067  0.9028 -0.3214
 6144SOL    HW219874   4.302   5.661   0.693 -0.5967 -0.0725 -0.5622
 6145SOL     OW19875   3.390   0.004  11.399  0.1205 -0.1772 -0.3151
 6145SOL    HW119876   3.400  -0.076  11.347 -2.3588 -1.0526  0.3789
 6145SOL    HW219877   3.307   0.041  11.370  1.0087  1.9411 -0.2932
 6146SOL     OW19878   2.700   0.523   8.265  0.5103  0.3024 -0.0739
 6146SOL    HW119879   2.698   0.434   8.231  1.4894  0.1113  0.3339
 6146SOL    HW219880   2.754   0.518   8.344 -0.3918  1.0417  0.6143
 6147SOL     OW19881   3.178   4.681   8.497 -0.1210  0.0537 -0.8464
 6147SOL    HW119882   3.235   4.758   8.496  1.7040 -1.1857  0.5496
 6147SOL    HW219883   3.196   4.636   8.414 -0.8244  0.8173 -1.4387
 6148SOL     OW19884   3.490   0.699  10.778  0.1200  0.7373  0.3478
 6148SOL    HW119885   3.490   0.794  10.764  0.7002  0.6217 -0.5231
 6148SOL    HW219886   3.583   0.678  10.790  0.0470  0.2088  0.0014
 6149SOL     OW19887   6.601   1.521   3.169 -0.2257  0.3716  0.3772
 6149SOL    HW119888   6.598   1.500   3.076  0.4612 -0.0331  0.4339
 6149SOL    HW219889   6.683   1.481   3.200 -0.6876  0.0686  1.2560
 6150SOL     OW19890   7.680   7.783  11.176 -0.5649 -0.3252  0.2773
 6150SOL    HW119891   7.648   7.796  11.265 -1.0946 -0.4782  0.1111
 6150SOL    HW219892   7.602   7.768  11.124 -0.5749  2.7546 -0.7737
 6151SOL     OW19893   2.358   5.441  10.624  0.0062  0.2391 -0.0286
 6151SOL    HW119894   2.435   5.424  10.678 -0.1950  2.4348  1.0650
 6151SOL    HW219895   2.383   5.516  10.569 -0.8661  0.0679 -0.6857
 6152SOL     OW19896   0.867   5.939   3.169 -0.2796  0.0298  0.1066
 6152SOL    HW119897   0.791   5.909   3.218 -1.1349 -0.1893 -1.2774
 6152SOL    HW219898   0.898   5.862   3.122  1.8308 -0.2746  1.8609
 6153SOL     OW19899   7.381   6.550   5.662  0.5401 -0.2203 -0.6890
 6153SOL    HW119900   7.287   6.548   5.678  0.7415 -1.2667  0.5373
 6153SOL    HW219901   7.419   6.503   5.736  1.8720 -1.9271 -2.3608
 6154SOL     OW19902   4.406   7.554   1.617 -0.1895 -0.0695  0.0570
 6154SOL    HW119903   4.402   7.647   1.595  1.7874  0.2009  0.5791
 6154SOL    HW219904   4.463   7.516   1.550 -0.5287 -0.7928  0.1678
 6155SOL     OW19905   7.526   5.760  11.982  0.1112  0.3327 -0.5468
 6155SOL    HW119906   7.614   5.731  11.958  0.0136 -0.0644 -0.4312
 6155SOL    HW219907   7.540   5.832  12.043  0.3722  1.9004 -2.3501
 6156SOL     OW19908   3.030   3.682   8.954  0.7243 -0.2034  0.4570
 6156SOL    HW119909   3.013   3.668   9.047 -1.4135  0.2079  0.1815
 6156SOL    HW219910   3.035   3.594   8.917 -0.0121 -0.3660  0.7255
 6157SOL     OW19911   7.396   4.741   6.495 -0.3814  0.0323 -0.6620
 6157SOL    HW119912   7.397   4.835   6.477  0.3934 -0.0581 -1.1514
 6157SOL    HW219913   7.462   4.705   6.436 -0.2028 -0.7336 -0.0117
 6158SOL     OW19914   0.317   0.224   3.429  0.9783 -0.0983 -0.2838
 6158SOL    HW119915   0.269   0.301   3.458  0.2568 -0.3835 -0.6989
 6158SOL    HW219916   0.324   0.233   3.334 -0.7677 -1.4371 -0.5886
 6159SOL     OW19917   2.744   3.493   9.999  0.3049 -0.0960  0.3102
 6159SOL    HW119918   2.795   3.521   9.923  0.2445 -0.8838 -0.0290
 6159SOL    HW219919   2.679   3.433   9.964  0.0206 -0.1614  0.9347
 6160SOL     OW19920   0.686   1.688   5.617 -0.0331 -0.3425  0.2653
 6160SOL    HW119921   0.598   1.658   5.641  0.0412 -1.6551 -0.9860
 6160SOL    HW219922   0.692   1.672   5.522  1.6532 -0.5607  0.3789
 6161SOL     OW19923   6.767   1.653   9.824  0.4576 -0.0961 -0.2040
 6161SOL    HW119924   6.697   1.624   9.883 -0.0810  2.3986  0.5243
 6161SOL    HW219925   6.732   1.733   9.784  1.9516 -0.1673 -1.7317
 6162SOL     OW19926   6.965   5.419   2.320  0.1272  0.4036 -0.2488
 6162SOL    HW119927   6.941   5.363   2.246  0.0684  0.7453 -0.4886
 6162SOL    HW219928   7.024   5.365   2.372 -1.2436 -0.5210  0.4208
 6163SOL     OW19929   7.858   0.273   3.073 -0.2696  0.3950 -0.4098
 6163SOL    HW119930   7.768   0.305   3.065 -0.1476  0.5611 -1.1701
 6163SOL    HW219931   7.870   0.214   2.999  0.0845 -0.0340 -0.0179
 6164SOL     OW19932   3.978   4.375  10.725 -0.8676 -0.0117  0.0365
 6164SOL    HW119933   4.071   4.373  10.705 -1.0164  1.8755 -1.1013
 6164SOL    HW219934   3.938   4.314  10.663 -0.4858 -0.0514 -0.1690
 6165SOL     OW19935   7.780   4.886  10.059  0.1184 -0.5847 -0.7695
 6165SOL    HW119936   7.723   4.922   9.991 -0.2170  1.9104  0.6929
 6165SOL    HW219937   7.720   4.855  10.127  0.4549  0.2050 -0.0947
 6166SOL     OW19938   5.606   5.500   6.166  0.2716  0.0863 -0.1191
 6166SOL    HW119939   5.616   5.407   6.189 -1.5368 -0.1726 -0.2707
 6166SOL    HW219940   5.679   5.517   6.106 -0.2609 -1.6807 -1.3590
 6167SOL     OW19941   0.914   1.729  10.898  0.3379 -0.7168  0.0183
 6167SOL    HW119942   0.841   1.738  10.836 -0.8439 -1.4081  1.2495
 6167SOL    HW219943   0.881   1.767  10.979  1.4970 -0.7068  0.5004
 6168SOL     OW19944   4.670   6.520   8.045  0.0872  0.1751  0.0867
 6168SOL    HW119945   4.641   6.579   7.976 -0.4274 -0.2626 -0.0803
 6168SOL    HW219946   4.718   6.451   7.999 -1.3896 -0.8354 -0.0055
 6169SOL     OW19947   4.092   6.201   4.504  0.4168  0.3870  0.2042
 6169SOL    HW119948   4.001   6.210   4.476  0.5977 -0.0987 -0.5686
 6169SOL    HW219949   4.115   6.110   4.484  0.8002  0.2453  1.2346
 6170SOL     OW19950   7.290   7.845   1.409  0.5254 -0.1585  0.2101
 6170SOL    HW119951   7.246   7.926   1.436 -1.5531 -0.7980 -1.0334
 6170SOL    HW219952   7.382   7.869   1.404  0.1653  1.7060  1.3887
 6171SOL     OW19953   6.362   2.016   7.996  0.6306  0.9652  0.3405
 6171SOL    HW119954   6.351   2.046   7.906 -0.1814 -0.7993 -0.2002
 6171SOL    HW219955   6.288   2.052   8.044 -0.1713  0.1082 -0.2299
 6172SOL     OW19956   4.743   4.653   2.446 -0.3326 -0.4247 -0.5474
 6172SOL    HW119957   4.823   4.647   2.499 -1.5164  0.0221  1.3993
 6172SOL    HW219958   4.737   4.745   2.422 -0.5745 -0.3337 -0.1511
 6173SOL     OW19959   1.898   4.937   9.818  0.4712 -0.3903 -0.2396
 6173SOL    HW119960   1.894   5.016   9.765  1.4974  0.6670  1.1889
 6173SOL    HW219961   1.807   4.921   9.844  0.3839  1.0162  0.4073
 6174SOL     OW19962   5.228   3.198   0.472 -0.2472 -0.5592 -0.7468
 6174SOL    HW119963   5.216   3.119   0.419  0.6970 -1.2989  0.0909
 6174SOL    HW219964   5.198   3.173   0.559 -0.3722  0.1618 -0.5765
 6175SOL     OW19965   4.846   1.266   3.721  0.1549  0.5203 -1.2789
 6175SOL    HW119966   4.883   1.353   3.736  1.5683  0.0611 -1.9243
 6175SOL    HW219967   4.915   1.206   3.748 -1.8203 -0.5527  2.0311
 6176SOL     OW19968   7.394   1.140   7.796 -0.4271  0.2677 -0.4756
 6176SOL    HW119969   7.340   1.079   7.846  0.6336 -0.5349 -0.2740
 6176SOL    HW219970   7.382   1.224   7.841  0.5880 -0.4557  1.2522
 6177SOL     OW19971   6.129   0.218   7.355 -0.0646  0.0414  0.3067
 6177SOL    HW119972   6.095   0.249   7.439 -1.4358 -1.1968  0.2522
 6177SOL    HW219973   6.054   0.226   7.296  1.4696  3.0794 -1.4666
 6178SOL     OW19974   1.308   7.334  10.777  0.9954 -0.1721 -0.0733
 6178SOL    HW119975   1.231   7.336  10.835  0.1499 -0.4298 -1.1525
 6178SOL    HW219976   1.346   7.247  10.790  1.7175  0.3025  1.2028
 6179SOL     OW19977   1.507   7.977   0.661  0.6687  0.0176 -0.0651
 6179SOL    HW119978   1.444   8.045   0.638  0.2339 -1.1146 -2.5880
 6179SOL    HW219979   1.580   7.990   0.599  0.5552 -1.7888 -0.6245
 6180SOL     OW19980   5.974   2.980   9.595  0.1346  0.3235  0.3200
 6180SOL    HW119981   5.981   2.922   9.520  0.5597  0.5888  0.1520
 6180SOL    HW219982   5.945   2.924   9.667  0.9276 -0.1641  0.2583
 6181SOL     OW19983   6.457   5.374   8.560 -0.1364 -0.2437  0.3700
 6181SOL    HW119984   6.518   5.422   8.616  1.9087 -1.3066 -0.8399
 6181SOL    HW219985   6.443   5.432   8.485  1.3718 -0.9708 -0.5118
 6182SOL     OW19986   6.136   7.132   0.520  0.1745 -0.4015  0.1893
 6182SOL    HW119987   6.045   7.143   0.494  0.0166 -1.0034  0.4640
 6182SOL    HW219988   6.141   7.042   0.553  1.4811 -1.4115 -2.4519
 6183SOL     OW19989   5.669   7.962  10.565  0.0607 -0.2116  0.0024
 6183SOL    HW119990   5.725   8.023  10.612 -0.5015  0.7364 -0.5349
 6183SOL    HW219991   5.726   7.889  10.542  1.0921  0.7625 -0.5903
 6184SOL     OW19992   1.759   1.482   4.247 -0.6374  0.5172  0.6019
 6184SOL    HW119993   1.800   1.541   4.183 -0.6031 -0.9219 -0.7688
 6184SOL    HW219994   1.670   1.516   4.257 -0.0994  1.8200  1.2090
 6185SOL     OW19995   2.071   6.726   3.961  0.2368 -0.1290  0.3579
 6185SOL    HW119996   2.043   6.650   3.911  0.8170  0.4892 -0.9846
 6185SOL    HW219997   2.131   6.691   4.027 -2.6628 -1.3058  2.5306
 6186SOL     OW19998   7.753   7.845   7.837 -0.3288  0.4330 -0.7216
 6186SOL    HW119999   7.798   7.766   7.809 -1.5507 -0.4009 -0.4075
 6186SOL    HW220000   7.725   7.888   7.756 -0.4338  0.0776 -0.8733
 6187SOL     OW20001   0.824   5.089  10.766 -0.3737 -0.0334 -0.1613
 6187SOL    HW120002   0.885   5.136  10.709  0.0135 -1.3431 -0.8558
 6187SOL    HW220003   0.860   5.001  10.774 -1.3971 -0.4073  0.6244
 6188SOL     OW20004   4.515   2.382   8.356 -0.0765  0.3076  0.0400
 6188SOL    HW120005   4.556   2.441   8.292  0.2362 -1.2729 -1.2933
 6188SOL    HW220006   4.586   2.358   8.416  0.2437 -0.0896 -0.4863
 6189SOL     OW20007   4.242   3.185  11.091  0.2747  0.2109  0.1019
 6189SOL    HW120008   4.299   3.259  11.113  0.1351  0.4150 -0.2090
 6189SOL    HW220009   4.153   3.221  11.098  0.2185  0.2037 -0.4987
 6190SOL     OW20010   1.869   7.505   6.105 -0.3911 -0.2219  0.2033
 6190SOL    HW120011   1.956   7.541   6.120 -1.3004  1.6404  1.3107
 6190SOL    HW220012   1.811   7.556   6.161 -2.3977 -0.5188 -1.4743
 6191SOL     OW20013   1.942   6.213  11.452 -1.1367 -0.3730  0.2297
 6191SOL    HW120014   2.019   6.157  11.443 -1.5703 -1.2296  1.5704
 6191SOL    HW220015   1.874   6.154  11.486 -2.2487  0.4787 -0.4432
 6192SOL     OW20016   6.133   0.015   5.540  0.6395 -0.0113  0.2788
 6192SOL    HW120017   6.058  -0.018   5.589  0.3363 -0.9415 -0.7645
 6192SOL    HW220018   6.207   0.006   5.600  0.6148 -2.8656  0.0274
 6193SOL     OW20019   5.903   2.805   9.377 -0.0620 -0.6537  0.3843
 6193SOL    HW120020   5.842   2.828   9.307  1.3655 -3.3942 -1.9374
 6193SOL    HW220021   5.862   2.730   9.421 -0.2858  0.1713  1.6414
 6194SOL     OW20022   5.466   7.239   3.847  0.1843 -0.7850 -0.3507
 6194SOL    HW120023   5.411   7.263   3.772  2.3171  0.6594 -1.5524
 6194SOL    HW220024   5.441   7.300   3.916 -0.1545 -0.5553 -0.6706
 6195SOL     OW20025   2.311   4.226   5.670 -0.0176  0.1960 -0.4896
 6195SOL    HW120026   2.394   4.188   5.640 -0.4021 -0.9126 -0.1918
 6195SOL    HW220027   2.308   4.312   5.628  2.2262  1.1271  1.0623
 6196SOL     OW20028   4.912   1.602   2.551  0.5042 -0.0520 -0.3865
 6196SOL    HW120029   4.980   1.566   2.608 -0.2521  0.8554  1.1338
 6196SOL    HW220030   4.869   1.525   2.514  0.4264 -0.6924  0.9823
 6197SOL     OW20031   4.346   5.669   5.210  0.0416  0.1817  0.0861
 6197SOL    HW120032   4.255   5.700   5.211 -0.1688 -0.3747 -0.5610
 6197SOL    HW220033   4.338   5.573   5.206  0.6571 -0.1247  3.3557
 6198SOL     OW20034   0.687   3.565   4.513 -0.7405  0.0385  0.0185
 6198SOL    HW120035   0.663   3.651   4.548  0.7974  0.4056  0.2150
 6198SOL    HW220036   0.610   3.510   4.529 -2.7797  1.9663 -2.3670
 6199SOL     OW20037   4.789   4.992   7.191 -0.0896 -0.0159  0.1588
 6199SOL    HW120038   4.755   4.953   7.272 -0.4795 -0.3626 -0.1677
 6199SOL    HW220039   4.712   4.999   7.134  0.2356 -0.0287 -0.2859
 6200SOL     OW20040   3.506   1.630  12.207  0.4418 -0.2560  0.1389
 6200SOL    HW120041   3.460   1.713  12.219  1.3418  0.2366  0.2977
 6200SOL    HW220042   3.517   1.596  12.296  0.9338 -0.0614  0.1541
 6201SOL     OW20043   2.829   0.435   3.217  0.3685 -0.1118 -0.2615
 6201SOL    HW120044   2.862   0.455   3.305 -0.9477 -0.0397  0.2303
 6201SOL    HW220045   2.905   0.448   3.160  1.7816 -1.9683  1.0562
 6202SOL     OW20046   1.403   0.824   6.916 -0.0605 -0.1566  0.2253
 6202SOL    HW120047   1.485   0.854   6.955  0.3693  0.1191 -0.8693
 6202SOL    HW220048   1.364   0.768   6.983  1.1927 -0.5849  0.6233
 6203SOL     OW20049   5.068   1.108   9.399  0.2037 -0.2304 -0.4766
 6203SOL    HW120050   5.074   1.050   9.475  0.5993  0.0490 -0.2893
 6203SOL    HW220051   4.992   1.077   9.351  1.3703 -2.0099 -1.2999
 6204SOL     OW20052   5.169   6.537   5.109 -0.6395  0.5007 -0.0793
 6204SOL    HW120053   5.084   6.558   5.150 -0.2549  0.8774  0.5413
 6204SOL    HW220054   5.154   6.454   5.064 -1.1851  0.2750  0.5092
 6205SOL     OW20055   0.791   6.147   4.708 -0.1110  0.0316  0.8040
 6205SOL    HW120056   0.716   6.134   4.767 -2.1803  0.4507 -1.5577
 6205SOL    HW220057   0.775   6.085   4.636  2.4716 -0.6751  0.7365
 6206SOL     OW20058   1.854   6.636   0.267  0.1052 -0.5258 -0.0544
 6206SOL    HW120059   1.789   6.629   0.196  0.6780 -1.3008 -0.5164
 6206SOL    HW220060   1.897   6.719   0.251 -1.4113  0.4701  0.8219
 6207SOL     OW20061   7.257   7.574  10.614  0.3745 -0.1973 -0.5206
 6207SOL    HW120062   7.337   7.535  10.580  1.4856  1.2457  0.3581
 6207SOL    HW220063   7.238   7.645  10.553 -0.7058 -0.9888 -1.1568
 6208SOL     OW20064   0.376   4.116   7.919  0.1468  0.6604 -0.4568
 6208SOL    HW120065   0.379   4.111   8.014  0.5417  2.1058 -0.3775
 6208SOL    HW220066   0.468   4.118   7.892  0.0403  0.1961 -0.8780
 6209SOL     OW20067   7.012   4.065   3.265 -0.4445 -0.0148 -0.2605
 6209SOL    HW120068   6.976   4.123   3.198 -2.1368  0.6637  1.1692
 6209SOL    HW220069   7.069   4.120   3.318  1.8821 -0.8141 -1.7585
 6210SOL     OW20070   6.264   0.397   8.041  1.0668  0.2548  0.3140
 6210SOL    HW120071   6.305   0.310   8.036 -0.0293 -0.2265 -1.9271
 6210SOL    HW220072   6.172   0.378   8.056  0.5449  0.8656 -1.7220
 6211SOL     OW20073   7.701   5.131   4.877  0.1360  0.2141  0.6007
 6211SOL    HW120074   7.648   5.075   4.934  0.3247  1.8401  2.5160
 6211SOL    HW220075   7.787   5.089   4.876 -0.3407 -0.7815  0.0211
 6212SOL     OW20076   0.388   7.401   9.722  0.5968  0.3486 -0.3544
 6212SOL    HW120077   0.303   7.393   9.678  0.5487 -0.5028 -0.1252
 6212SOL    HW220078   0.398   7.495   9.738 -0.6102  0.4056  0.1996
 6213SOL     OW20079   5.842   1.995  11.916 -0.1212 -0.0546  0.2840
 6213SOL    HW120080   5.867   1.953  11.834  0.2773 -0.7609  0.7552
 6213SOL    HW220081   5.915   2.053  11.937  0.2829 -0.7072  0.7011
 6214SOL     OW20082   0.841   7.281   1.132 -0.0030 -0.3036 -0.6815
 6214SOL    HW120083   0.908   7.343   1.102  1.1136 -1.1205  0.0154
 6214SOL    HW220084   0.888   7.222   1.191 -2.0554  1.2074  2.7561
 6215SOL     OW20085   1.705   7.414   3.043  0.1098 -0.2616 -0.1723
 6215SOL    HW120086   1.623   7.443   3.003  0.5474 -0.9890 -1.7049
 6215SOL    HW220087   1.679   7.373   3.125 -0.7531  2.0358  0.7764
 6216SOL     OW20088   5.736   0.514   0.999 -0.4882 -0.3916 -0.1121
 6216SOL    HW120089   5.715   0.588   0.942 -0.2002 -1.4495 -1.6680
 6216SOL    HW220090   5.831   0.511   1.000 -0.4979 -0.6215  0.0880
 6217SOL     OW20091   1.152   3.405   3.730  0.0066  0.4238 -0.1876
 6217SOL    HW120092   1.214   3.392   3.802 -0.8043 -0.1790  0.4281
 6217SOL    HW220093   1.077   3.449   3.771 -0.1195  0.8387 -0.8444
 6218SOL     OW20094   0.022   0.499   9.163 -0.0587 -0.2092 -0.3850
 6218SOL    HW120095  -0.049   0.546   9.119  1.2058  1.0849 -1.1576
 6218SOL    HW220096   0.052   0.560   9.231 -0.4391 -1.2238  0.7224
 6219SOL     OW20097   1.198   0.938   3.374 -0.4357  0.3885  0.6698
 6219SOL    HW120098   1.228   0.909   3.460 -0.5262  2.3349  1.4213
 6219SOL    HW220099   1.111   0.974   3.390 -0.5815  0.5055 -0.3051
 6220SOL     OW20100   2.343   2.798   5.398  0.6491 -0.2501  0.0564
 6220SOL    HW120101   2.303   2.719   5.433 -0.3943  0.3555  0.2821
 6220SOL    HW220102   2.323   2.796   5.305  0.9517 -0.4301 -0.0077
 6221SOL     OW20103   5.416   5.780  10.255 -0.1944  0.2174 -0.1455
 6221SOL    HW120104   5.511   5.779  10.247  0.1898 -1.1631  3.0886
 6221SOL    HW220105   5.398   5.849  10.319 -1.6165  1.6742 -1.9957
 6222SOL     OW20106   0.881   7.600  10.513 -0.0524  0.0589 -0.2273
 6222SOL    HW120107   0.901   7.508  10.528  0.0710 -0.6798 -3.9600
 6222SOL    HW220108   0.791   7.611  10.544 -0.6249 -1.7550 -1.1305
 6223SOL     OW20109   2.777   2.601   3.314  0.0570 -0.2427  0.2489
 6223SOL    HW120110   2.871   2.594   3.298  0.1050  1.0657 -0.1385
 6223SOL    HW220111   2.758   2.695   3.306 -1.4874 -0.6046 -0.8888
 6224SOL     OW20112   7.738   3.890   1.762 -0.0766 -0.4579 -0.2307
 6224SOL    HW120113   7.646   3.892   1.790  0.2985 -2.1649  1.2458
 6224SOL    HW220114   7.788   3.889   1.843  1.2729  0.0706 -1.0204
 6225SOL     OW20115   7.062   7.825   4.282 -0.4402 -0.6816 -0.6058
 6225SOL    HW120116   6.982   7.777   4.261 -1.0055  0.5332 -1.3748
 6225SOL    HW220117   7.083   7.873   4.202  0.0484  0.3889  0.1367
 6226SOL     OW20118   7.248   6.926  11.692  0.0937 -0.5277  0.0693
 6226SOL    HW120119   7.237   6.832  11.708  0.6819 -0.9615 -1.8827
 6226SOL    HW220120   7.295   6.932  11.609  3.8071  1.4110  2.0123
 6227SOL     OW20121   0.745   3.732   3.558  0.6546  0.2479 -0.0801
 6227SOL    HW120122   0.763   3.728   3.652  0.5402 -0.6805 -0.0945
 6227SOL    HW220123   0.663   3.685   3.547  0.2272  1.0791 -0.5416
 6228SOL     OW20124   7.509   5.126   6.111 -0.7247  0.0802  0.2055
 6228SOL    HW120125   7.562   5.052   6.142 -1.0388  0.1206  0.8619
 6228SOL    HW220126   7.574   5.189   6.078 -0.1789  0.8746  2.5816
 6229SOL     OW20127   1.631   0.370  10.048  0.1394 -0.0247  0.2541
 6229SOL    HW120128   1.674   0.307   9.990  0.5871  0.0962  0.4510
 6229SOL    HW220129   1.655   0.341  10.136  0.5329  0.5581  0.3403
 6230SOL     OW20130   6.024   7.351   3.864  0.0753  0.6370 -0.3771
 6230SOL    HW120131   5.950   7.396   3.822 -0.3419  0.3887  0.0861
 6230SOL    HW220132   6.098   7.410   3.851 -0.5730  1.7242  0.6842
 6231SOL     OW20133   3.243   0.310   6.572  0.5233 -0.6156  0.2482
 6231SOL    HW120134   3.271   0.320   6.481  1.1839 -0.5066  0.4653
 6231SOL    HW220135   3.148   0.321   6.568  0.8437  3.9619  0.1261
 6232SOL     OW20136   1.784   3.813   5.184 -0.8487 -0.0355  0.0640
 6232SOL    HW120137   1.774   3.875   5.256 -1.6514 -0.1895  0.0904
 6232SOL    HW220138   1.753   3.730   5.219 -1.0909 -0.1493 -0.4102
 6233SOL     OW20139   2.470   7.608  10.902  0.1648  0.0575 -0.0773
 6233SOL    HW120140   2.465   7.536  10.839 -1.6051  0.1007 -0.0271
 6233SOL    HW220141   2.467   7.565  10.987 -0.5881  0.1598 -0.0464
 6234SOL     OW20142   2.728   2.321   0.575  0.5331 -0.4196 -0.2553
 6234SOL    HW120143   2.683   2.354   0.653  1.1235 -0.8570  0.2775
 6234SOL    HW220144   2.728   2.395   0.514 -0.5474 -0.2868 -0.1145
 6235SOL     OW20145   7.456   2.301  10.380 -0.1569  0.7025  0.7219
 6235SOL    HW120146   7.442   2.284  10.287 -0.3676 -0.8039  1.0087
 6235SOL    HW220147   7.385   2.360  10.404 -1.6240 -0.8955  0.4721
 6236SOL     OW20148   2.588   6.572   6.932 -0.0451 -0.7047 -0.7596
 6236SOL    HW120149   2.519   6.539   6.989  0.0085 -0.1934 -0.3884
 6236SOL    HW220150   2.544   6.592   6.849 -0.5176  0.4065 -0.2605
 6237SOL     OW20151   7.608   1.465   5.647 -0.7181  0.4035 -0.2378
 6237SOL    HW120152   7.614   1.533   5.579 -0.3127 -0.4428 -1.0740
 6237SOL    HW220153   7.694   1.466   5.689 -0.8557  0.6923  0.0441
 6238SOL     OW20154   2.731   5.416   8.491 -0.4609 -0.0018 -0.0621
 6238SOL    HW120155   2.752   5.350   8.557  1.4301  0.4969 -0.1267
 6238SOL    HW220156   2.798   5.404   8.424 -0.2923  1.7742 -0.2375
 6239SOL     OW20157   0.481   3.140   0.071  0.5208 -0.3897 -0.1155
 6239SOL    HW120158   0.419   3.194   0.119  2.2577  0.1785  1.6045
 6239SOL    HW220159   0.427   3.073   0.029 -1.2544  0.1621  1.1732
 6240SOL     OW20160   7.781   7.866   7.311 -0.3971 -0.2107 -0.6477
 6240SOL    HW120161   7.710   7.831   7.365  1.1292 -1.6963  0.5267
 6240SOL    HW220162   7.857   7.813   7.335  1.4281  2.1239 -0.9016
 6241SOL     OW20163   7.828   1.897  11.829 -0.2922 -0.1124  0.5117
 6241SOL    HW120164   7.769   1.822  11.834 -0.8512  0.2462 -0.3831
 6241SOL    HW220165   7.820   1.927  11.739  0.4618  0.5948  0.6720
 6242SOL     OW20166   0.703   2.214   0.110  0.6489  0.9030  0.4013
 6242SOL    HW120167   0.718   2.120   0.102  0.7741  1.0290 -1.2589
 6242SOL    HW220168   0.630   2.222   0.171 -1.1836 -0.4501 -1.4779
 6243SOL     OW20169   6.310   0.181   5.293  0.3291 -0.3596  0.5030
 6243SOL    HW120170   6.306   0.220   5.205  2.2351 -1.5513 -0.1865
 6243SOL    HW220171   6.401   0.195   5.320 -0.0730 -0.5961  2.0244
 6244SOL     OW20172   0.986   4.053   7.042 -0.3104 -0.3641 -0.6028
 6244SOL    HW120173   0.895   4.059   7.070 -0.0093  0.4905  0.2328
 6244SOL    HW220174   0.987   4.092   6.954 -0.6839 -0.0273 -0.4596
 6245SOL     OW20175   1.256   5.939   2.188  0.3150 -0.4911  0.0875
 6245SOL    HW120176   1.268   6.009   2.124 -0.6837 -0.8643 -0.5297
 6245SOL    HW220177   1.247   5.984   2.272 -0.4341  0.1459 -0.3168
 6246SOL     OW20178   1.976   4.814   6.914  0.1739  0.3855 -0.1532
 6246SOL    HW120179   2.000   4.894   6.960 -0.5124 -0.2977  1.4542
 6246SOL    HW220180   1.899   4.838   6.862 -1.4810  0.2641  2.1066
 6247SOL     OW20181   4.293   0.010   2.394 -0.2111  0.9218 -0.7931
 6247SOL    HW120182   4.303   0.095   2.437  0.0304  1.7372 -2.3801
 6247SOL    HW220183   4.381  -0.027   2.393  0.0096  1.4404 -1.6135
 6248SOL     OW20184   7.014   2.866   9.452 -0.1455  0.4599 -0.1851
 6248SOL    HW120185   7.005   2.961   9.462  0.5016  0.4426  0.7604
 6248SOL    HW220186   7.044   2.836   9.538 -0.7225 -0.6591 -0.3558
 6249SOL     OW20187   0.175   3.996   6.584  0.1486  0.3223  0.3183
 6249SOL    HW120188   0.173   4.014   6.490 -2.2335 -0.8503  0.0673
 6249SOL    HW220189   0.252   3.940   6.596 -0.8497 -1.5819 -1.4306
 6250SOL     OW20190   6.930   7.795  11.651 -0.3387 -0.1617  0.0772
 6250SOL    HW120191   6.904   7.737  11.580 -1.5426 -1.4631  1.5035
 6250SOL    HW220192   6.868   7.868  11.646 -0.6550 -0.4331  0.0019
 6251SOL     OW20193   7.163   4.607   6.362  0.2387 -0.4393 -0.0917
 6251SOL    HW120194   7.229   4.656   6.412  1.3980 -0.8471 -1.1592
 6251SOL    HW220195   7.201   4.599   6.274 -2.8577  2.5906 -1.9284
 6252SOL     OW20196   6.256   2.083  11.638 -0.5675 -0.1560  0.3182
 6252SOL    HW120197   6.278   2.022  11.567  0.1745  1.2660 -0.7189
 6252SOL    HW220198   6.302   2.164  11.615  0.8873 -0.0471  3.1544
 6253SOL     OW20199   3.498   5.979   6.801  0.7337 -0.0620 -0.4807
 6253SOL    HW120200   3.473   6.031   6.877  0.2089  1.8842 -1.8741
 6253SOL    HW220201   3.590   5.960   6.814  0.9277  1.1843  0.1669
 6254SOL     OW20202   0.929   6.902   3.519  0.8775 -0.0735 -0.3672
 6254SOL    HW120203   0.924   6.860   3.605 -0.2787 -0.2813 -0.5281
 6254SOL    HW220204   0.839   6.901   3.486  1.1160  1.0048 -1.1017
 6255SOL     OW20205   4.458   4.436   6.405  1.0563 -0.0301  0.1269
 6255SOL    HW120206   4.521   4.500   6.438 -0.6577  3.5119 -2.8219
 6255SOL    HW220207   4.506   4.387   6.339  1.2517  1.5187 -0.9324
 6256SOL     OW20208   2.532   6.274   7.189  1.0539  0.1274  0.3044
 6256SOL    HW120209   2.616   6.311   7.216  2.6010 -2.5389 -0.4858
 6256SOL    HW220210   2.506   6.218   7.262  1.0437 -0.6637 -0.2906
 6257SOL     OW20211   6.868   7.402  11.810 -0.0452  0.5144 -0.1926
 6257SOL    HW120212   6.931   7.413  11.739 -0.8618  0.4842 -0.9343
 6257SOL    HW220213   6.822   7.322  11.789 -1.0863  1.1123 -0.2520
 6258SOL     OW20214   1.124   4.197  11.355  0.2639  0.0018 -0.0290
 6258SOL    HW120215   1.098   4.135  11.287  1.4917  1.1688 -1.6360
 6258SOL    HW220216   1.045   4.250  11.370 -0.6663 -1.6133  1.0701
 6259SOL     OW20217   2.810   1.926   5.344  0.5673  0.4653  0.2569
 6259SOL    HW120218   2.735   1.982   5.363 -0.9943 -1.1558 -0.7781
 6259SOL    HW220219   2.878   1.986   5.312 -0.6357  1.8587  0.2221
 6260SOL     OW20220   2.606   0.125   5.367 -0.3252  0.1074  0.0926
 6260SOL    HW120221   2.559   0.059   5.317  0.4714 -0.6856  0.3564
 6260SOL    HW220222   2.664   0.075   5.425  0.7856  1.0308 -0.1624
 6261SOL     OW20223   0.310   2.835   8.574  0.3518 -0.0155 -0.4999
 6261SOL    HW120224   0.308   2.902   8.505  0.7101  0.1446 -0.3581
 6261SOL    HW220225   0.351   2.878   8.648  0.3238 -0.3090 -0.3117
 6262SOL     OW20226   3.674   7.962  11.840  0.3328 -0.1599  0.0656
 6262SOL    HW120227   3.587   7.976  11.804  0.9877  0.3571 -1.4090
 6262SOL    HW220228   3.731   8.018  11.788  1.4995 -0.1837  1.2560
 6263SOL     OW20229   1.829   2.102   4.108 -0.3614  0.2162  0.2782
 6263SOL    HW120230   1.807   2.172   4.047 -0.0649  2.1265  2.2387
 6263SOL    HW220231   1.923   2.111   4.122 -0.0537 -1.4911 -0.4674
 6264SOL     OW20232   0.835   5.748   4.951  0.1769  0.2275  0.0368
 6264SOL    HW120233   0.926   5.723   4.964 -0.0015  0.2605  1.4422
 6264SOL    HW220234   0.785   5.689   5.007 -0.5904  0.8652  0.0410
 6265SOL     OW20235   3.922   7.523   9.385 -0.2774  0.1119  0.2182
 6265SOL    HW120236   4.009   7.484   9.377 -0.3855 -0.7141  2.5124
 6265SOL    HW220237   3.914   7.579   9.307  1.6822 -0.9427 -0.8165
 6266SOL     OW20238   7.663   7.166   0.833  0.4504 -0.6301 -0.3469
 6266SOL    HW120239   7.758   7.158   0.832  0.6436  1.2524 -0.6228
 6266SOL    HW220240   7.645   7.245   0.783 -1.3532 -1.5951 -1.3407
 6267SOL     OW20241   1.795   3.276   9.427 -0.4412 -0.0791  0.0277
 6267SOL    HW120242   1.826   3.207   9.486 -2.7201 -0.5744  0.7398
 6267SOL    HW220243   1.839   3.356   9.459 -0.7595 -0.5305  1.7227
 6268SOL     OW20244   4.594   4.599   1.520  0.0705 -0.2703 -0.5765
 6268SOL    HW120245   4.522   4.535   1.524 -0.1594  0.0219 -0.0243
 6268SOL    HW220246   4.640   4.588   1.603 -1.2797  1.7954  0.5303
 6269SOL     OW20247   3.103   5.772   5.738  0.5769 -0.3081  0.4932
 6269SOL    HW120248   3.158   5.824   5.680  1.1084  0.0945  1.3490
 6269SOL    HW220249   3.054   5.715   5.679  2.9239 -1.7046 -0.2210
 6270SOL     OW20250   5.032   4.173   9.698  0.4550 -0.4139  0.3174
 6270SOL    HW120251   4.989   4.232   9.636 -0.0941  0.7325  1.7418
 6270SOL    HW220252   5.116   4.214   9.716  0.3225 -0.3732  0.8557
 6271SOL     OW20253   6.569   6.403  10.597 -0.2965 -0.1658  0.2275
 6271SOL    HW120254   6.573   6.331  10.659  0.8424 -0.0726  0.2912
 6271SOL    HW220255   6.621   6.472  10.637 -1.8068  0.9181  0.4203
 6272SOL     OW20256   3.031   3.040   5.926  0.5383 -0.3473  0.3600
 6272SOL    HW120257   2.957   3.039   5.865 -0.1904 -0.4712  1.2322
 6272SOL    HW220258   3.014   3.113   5.985  1.8634  0.5425 -0.3125
 6273SOL     OW20259   7.143   7.131   2.669  0.0440 -0.2387 -0.0904
 6273SOL    HW120260   7.135   7.195   2.599  0.8218 -0.5570 -0.4854
 6273SOL    HW220261   7.056   7.128   2.709 -1.0086 -1.4697 -2.2724
 6274SOL     OW20262   5.197   2.888  10.374  0.2469 -0.2722 -0.4580
 6274SOL    HW120263   5.283   2.909  10.338  1.0351 -1.1218  0.8185
 6274SOL    HW220264   5.135   2.908  10.304  1.5549 -0.4365 -1.6902
 6275SOL     OW20265   2.545   1.394   2.916 -0.1216 -0.1489  0.0522
 6275SOL    HW120266   2.519   1.348   2.996  0.7169  0.0303  0.4371
 6275SOL    HW220267   2.462   1.421   2.876 -0.5315  0.4662  1.2709
 6276SOL     OW20268   7.920   3.198   4.173 -0.0676  0.5645  0.1460
 6276SOL    HW120269   8.013   3.178   4.159  0.0076  0.9599  0.0726
 6276SOL    HW220270   7.884   3.118   4.211  0.2449  0.3155 -0.0735
 6277SOL     OW20271   2.983   1.945  10.076 -0.1321  0.1152  0.1970
 6277SOL    HW120272   3.058   1.897  10.111 -0.2253 -1.1074 -1.1818
 6277SOL    HW220273   2.977   2.024  10.131  0.6884 -0.9130  1.8380
 6278SOL     OW20274   1.699   2.381  11.502  0.3397  0.1286 -0.1467
 6278SOL    HW120275   1.771   2.376  11.565  0.2900 -0.3837 -0.1316
 6278SOL    HW220276   1.630   2.429  11.549  1.0459  1.5843 -0.5318
 6279SOL     OW20277   7.530   2.942   5.340  0.4830  0.2406 -0.0891
 6279SOL    HW120278   7.560   3.027   5.306 -1.4135  0.8551 -0.3832
 6279SOL    HW220279   7.447   2.927   5.294  1.4034 -2.4523 -1.0441
 6280SOL     OW20280   2.193   2.568   9.511  0.3259  0.2780  0.1201
 6280SOL    HW120281   2.189   2.598   9.420  2.0238 -0.4953 -0.2376
 6280SOL    HW220282   2.257   2.625   9.552 -0.2178  0.4283  0.7733
 6281SOL     OW20283   0.463   3.760   3.952  0.2722  0.4127 -0.1461
 6281SOL    HW120284   0.513   3.687   3.989  2.0621  0.4078 -2.3891
 6281SOL    HW220285   0.382   3.720   3.920 -0.4592  0.1122  1.8863
 6282SOL     OW20286   3.238   7.176   5.262  0.3744 -0.0293  0.1911
 6282SOL    HW120287   3.281   7.217   5.338 -0.4613  0.0105  0.6541
 6282SOL    HW220288   3.231   7.084   5.285 -1.6935  0.3033  1.0617
 6283SOL     OW20289   6.661   0.352   8.472  0.4751  0.0796 -0.7425
 6283SOL    HW120290   6.656   0.375   8.565  0.6606  0.6721 -0.8731
 6283SOL    HW220291   6.636   0.259   8.468 -0.1311  0.2107 -0.1739
 6284SOL     OW20292   7.621   0.996  10.110 -0.0350  0.0073  0.2439
 6284SOL    HW120293   7.669   1.009  10.028 -1.0299  0.1009 -0.3521
 6284SOL    HW220294   7.687   0.969  10.173  0.7865  0.1169 -0.5454
 6285SOL     OW20295   6.996   4.224   2.305  0.3084 -0.0215  0.5758
 6285SOL    HW120296   6.949   4.260   2.381 -0.1056 -0.2355  0.4236
 6285SOL    HW220297   6.927   4.210   2.239  0.5245 -0.7557  0.5069
 6286SOL     OW20298   7.526   5.495  11.158  0.1447 -0.4728  0.3927
 6286SOL    HW120299   7.590   5.426  11.137  0.1290 -0.0801 -1.0201
 6286SOL    HW220300   7.541   5.563  11.093 -1.2350 -0.0482  0.4831
 6287SOL     OW20301   3.816   7.888   5.465  0.6868  0.4067 -0.2224
 6287SOL    HW120302   3.764   7.860   5.389 -0.4990  0.7289  0.4336
 6287SOL    HW220303   3.903   7.851   5.450  0.2921 -0.0989 -1.4023
 6288SOL     OW20304   1.951   3.741  11.291 -0.3017  0.2065 -0.7094
 6288SOL    HW120305   1.911   3.692  11.363 -0.3700  0.9199 -0.2461
 6288SOL    HW220306   1.990   3.675  11.235 -1.4764 -0.4525 -0.7654
 6289SOL     OW20307   4.017   0.262   7.415  0.3266 -0.4163  0.2498
 6289SOL    HW120308   4.107   0.238   7.441  1.1507  2.5005  0.4214
 6289SOL    HW220309   3.979   0.299   7.495  0.3693  1.9491 -0.7583
 6290SOL     OW20310   7.651   4.138  11.384  0.2249  0.0864  0.1510
 6290SOL    HW120311   7.731   4.184  11.412  0.5822 -0.5227  0.1542
 6290SOL    HW220312   7.643   4.159  11.291  1.0028 -0.7113 -0.1128
 6291SOL     OW20313   5.435   2.115  10.981  0.4394 -0.7340  0.3576
 6291SOL    HW120314   5.428   2.083  10.891  0.2773 -1.4168  0.6069
 6291SOL    HW220315   5.347   2.143  11.004  0.4454 -0.7151  0.3574
 6292SOL     OW20316   1.522   5.604   0.730  0.6060 -0.3170  0.3530
 6292SOL    HW120317   1.593   5.570   0.676  0.4700 -0.5023  0.2901
 6292SOL    HW220318   1.494   5.684   0.685 -1.3684 -1.8971 -1.4206
 6293SOL     OW20319   7.416   0.749   7.697 -0.4985  0.4491 -0.2167
 6293SOL    HW120320   7.345   0.781   7.752  0.3250  0.4154  0.9124
 6293SOL    HW220321   7.487   0.811   7.710  0.2631 -0.4452  0.0406
 6294SOL     OW20322   0.168   5.685   5.100 -0.4003  0.4835  0.0367
 6294SOL    HW120323   0.195   5.708   5.011 -2.5149 -0.3645 -0.8970
 6294SOL    HW220324   0.098   5.620   5.088 -1.9477  1.6017  2.2475
 6295SOL     OW20325   0.754   2.514   4.834 -0.4242 -0.0931  0.1108
 6295SOL    HW120326   0.719   2.432   4.800  0.2049 -0.0244 -0.7187
 6295SOL    HW220327   0.698   2.581   4.796 -0.0903 -0.0564 -0.3286
 6296SOL     OW20328   4.592   4.932   7.440  0.1716  0.0243 -0.0159
 6296SOL    HW120329   4.515   4.908   7.490 -0.4472 -0.0370 -0.9677
 6296SOL    HW220330   4.569   5.016   7.399  0.7802  0.2281  0.0464
 6297SOL     OW20331   2.665   6.635   3.797 -0.0506 -0.0237 -0.2147
 6297SOL    HW120332   2.570   6.627   3.786  0.0299 -1.6936 -0.0430
 6297SOL    HW220333   2.676   6.674   3.883 -0.5797  0.1827 -0.2332
 6298SOL     OW20334   2.603   5.298  12.056 -0.2825  0.1464  0.2504
 6298SOL    HW120335   2.636   5.383  12.026 -2.0739  0.8289  0.0893
 6298SOL    HW220336   2.638   5.288  12.144  0.5989  0.6628 -0.0282
 6299SOL     OW20337   1.475   5.305   3.506 -0.3092  0.0231 -0.6750
 6299SOL    HW120338   1.544   5.256   3.460  1.4452 -0.2264  1.9895
 6299SOL    HW220339   1.440   5.243   3.570  1.0720  1.6976  1.9063
 6300SOL     OW20340   1.429   2.581   1.686 -0.0864  0.2869  0.0665
 6300SOL    HW120341   1.383   2.661   1.661 -1.0638 -0.5941 -1.1098
 6300SOL    HW220342   1.360   2.524   1.722  0.4066 -0.3744 -0.0082
 6301SOL     OW20343   0.164   5.373   9.985  0.5184  0.2593  0.3274
 6301SOL    HW120344   0.172   5.384   9.891  1.2754 -1.2791  0.1793
 6301SOL    HW220345   0.095   5.307   9.996  0.8511 -0.0207  0.8140
 6302SOL     OW20346   2.960   5.925  11.669 -0.1544  0.1985 -0.0026
 6302SOL    HW120347   2.898   5.959  11.733  0.5413 -0.2894  0.9596
 6302SOL    HW220348   2.917   5.938  11.584 -1.2134  0.5916  0.5772
 6303SOL     OW20349   2.196   7.544   3.101  0.0844  0.2950 -0.4401
 6303SOL    HW120350   2.102   7.529   3.087  0.2471  0.1294 -1.3608
 6303SOL    HW220351   2.200   7.591   3.185 -0.9248  1.6176 -1.1064
 6304SOL     OW20352   6.873   7.040   0.958 -0.5018 -0.0848 -0.3883
 6304SOL    HW120353   6.941   6.988   1.001 -0.7591 -0.9483 -0.9991
 6304SOL    HW220354   6.869   7.121   1.009 -0.5826 -0.9412  1.0038
 6305SOL     OW20355   2.557   6.212   4.186 -0.3406 -0.2617  0.2152
 6305SOL    HW120356   2.584   6.153   4.115 -0.2912 -0.7964  0.6807
 6305SOL    HW220357   2.621   6.197   4.255  1.4841  2.4166 -0.6914
 6306SOL     OW20358   4.293   5.807   3.745  0.0831 -0.1509  0.4962
 6306SOL    HW120359   4.200   5.783   3.752 -0.3524  0.7607 -1.4499
 6306SOL    HW220360   4.310   5.860   3.823 -1.0177 -0.3322  0.8803
 6307SOL     OW20361   7.500   3.278   6.895 -0.2182  0.2611 -0.2722
 6307SOL    HW120362   7.544   3.195   6.877  0.1378  0.4250 -0.1574
 6307SOL    HW220363   7.524   3.334   6.822  1.0967  0.8763  0.5929
 6308SOL     OW20364   5.055   1.613   3.674 -0.1901  0.2038  0.2468
 6308SOL    HW120365   5.025   1.578   3.757 -1.0344 -1.4394 -0.7040
 6308SOL    HW220366   5.140   1.570   3.659 -0.8075 -0.7842 -0.4983
 6309SOL     OW20367   3.930   1.970   7.193 -0.2955 -0.7241  1.3764
 6309SOL    HW120368   3.909   1.879   7.213  0.4508 -0.6993  2.3072
 6309SOL    HW220369   4.010   1.966   7.140 -1.9093 -0.7551 -1.2372
 6310SOL     OW20370   3.904   4.215   4.014 -0.3101 -0.7863  0.5290
 6310SOL    HW120371   3.867   4.128   4.031  2.4657 -2.3634 -0.8126
 6310SOL    HW220372   3.974   4.225   4.079  0.0885 -0.0379 -0.0043
 6311SOL     OW20373   5.069   5.978   0.386 -0.5244 -0.0672 -0.3848
 6311SOL    HW120374   5.104   5.891   0.408 -1.8898 -0.5825 -0.1075
 6311SOL    HW220375   5.045   6.016   0.471 -1.1330  0.0249 -0.5903
 6312SOL     OW20376   2.398   2.697   6.100 -0.1357 -0.6753 -0.2584
 6312SOL    HW120377   2.400   2.672   6.192 -1.4092  0.6073  0.1683
 6312SOL    HW220378   2.437   2.785   6.098 -0.6961 -0.4267 -0.8227
 6313SOL     OW20379   4.721   5.706   1.257  0.5275 -0.4318 -0.2124
 6313SOL    HW120380   4.728   5.618   1.221 -0.6860 -0.0444 -1.4738
 6313SOL    HW220381   4.778   5.759   1.201 -0.1594 -0.1054 -0.6182
 6314SOL     OW20382   2.047   2.311   2.106 -0.2170 -0.0874 -0.2605
 6314SOL    HW120383   2.111   2.379   2.126  0.6520 -0.5894 -1.2386
 6314SOL    HW220384   1.993   2.347   2.036  0.1114 -0.3138 -0.6355
 6315SOL     OW20385   5.903   4.480   4.034  0.1277  0.2209  0.0710
 6315SOL    HW120386   5.987   4.451   3.998  0.3011  2.0327 -1.0532
 6315SOL    HW220387   5.882   4.560   3.987 -0.7922  1.4413  2.4041
 6316SOL     OW20388   6.819   6.036   6.428 -0.1697  0.0535 -0.3934
 6316SOL    HW120389   6.872   6.036   6.508  0.0898 -3.7258 -0.3671
 6316SOL    HW220390   6.728   6.032   6.459 -0.3398  2.4941 -0.4118
 6317SOL     OW20391   6.697   6.856   1.609 -0.4873 -0.3642 -0.0976
 6317SOL    HW120392   6.609   6.851   1.571 -0.4566  1.6051 -0.5128
 6317SOL    HW220393   6.742   6.780   1.574 -1.3044 -0.0943 -1.8472
 6318SOL     OW20394   5.592   3.556   4.397 -0.8889  0.0858  0.0067
 6318SOL    HW120395   5.686   3.537   4.407 -1.4829 -2.9953  0.7209
 6318SOL    HW220396   5.575   3.626   4.460  0.8341  0.4197  0.1556
 6319SOL     OW20397   2.388   2.640  10.913 -0.7822  0.2664 -0.2557
 6319SOL    HW120398   2.320   2.684  10.963  0.1406 -0.9990  2.2739
 6319SOL    HW220399   2.467   2.691  10.929  0.0831 -1.5988  1.9057
 6320SOL     OW20400   1.133   6.991  10.936  0.2507 -1.0239 -0.0526
 6320SOL    HW120401   1.104   6.944  11.014  0.5877 -1.1329  0.0104
 6320SOL    HW220402   1.226   7.009  10.952  0.3738 -1.2283 -0.5121
 6321SOL     OW20403   7.697   0.884   6.184  0.3235 -0.4538  0.3965
 6321SOL    HW120404   7.785   0.913   6.210 -0.1200  1.6240 -0.2182
 6321SOL    HW220405   7.694   0.898   6.090 -0.0414 -2.3833  0.0832
 6322SOL     OW20406   0.709   1.636   6.719 -0.1299  0.5472 -0.2580
 6322SOL    HW120407   0.742   1.573   6.783  1.4205  2.2875  0.8026
 6322SOL    HW220408   0.788   1.667   6.674 -0.7532  2.0680 -0.3627
 6323SOL     OW20409   1.952   2.874   1.413 -0.2322 -0.5011 -0.0829
 6323SOL    HW120410   1.988   2.957   1.384  0.8162 -1.1959 -0.8119
 6323SOL    HW220411   1.956   2.879   1.509  1.9474 -0.5881 -0.1204
 6324SOL     OW20412   1.633   0.621   9.911 -0.4518  0.2074  0.1154
 6324SOL    HW120413   1.628   0.534   9.949  0.8867  0.1926  0.3153
 6324SOL    HW220414   1.687   0.671   9.973 -1.4768  1.2732  0.1756
 6325SOL     OW20415   5.794   0.355   9.101  0.2500  0.1847  0.6334
 6325SOL    HW120416   5.758   0.278   9.056  0.7951  0.0779  0.3670
 6325SOL    HW220417   5.722   0.387   9.155 -0.1624 -0.1768  0.3105
 6326SOL     OW20418   5.441   0.626   7.634 -0.3718  0.0619  0.0064
 6326SOL    HW120419   5.437   0.539   7.596  0.7203 -0.6211  1.3715
 6326SOL    HW220420   5.502   0.618   7.707 -1.6426  1.5410  1.3019
 6327SOL     OW20421   4.831   2.349   9.902 -0.0119  0.3745 -0.3592
 6327SOL    HW120422   4.876   2.363   9.819 -2.2031  0.9975 -1.5143
 6327SOL    HW220423   4.787   2.432   9.920 -2.3485 -0.8069 -0.3625
 6328SOL     OW20424   5.515   6.787   3.016  0.0100  0.1704  0.3624
 6328SOL    HW120425   5.592   6.764   2.963  1.0331  2.5350  0.7055
 6328SOL    HW220426   5.447   6.806   2.952  0.4459  0.4304 -0.0331
 6329SOL     OW20427   0.415   5.837   5.094 -0.0373 -0.9513  0.3866
 6329SOL    HW120428   0.333   5.845   5.142 -0.3824 -0.4008 -0.2711
 6329SOL    HW220429   0.471   5.905   5.131 -0.5105 -0.1224 -0.3701
 6330SOL     OW20430   4.898   1.155   7.227  0.2091 -0.0135 -0.1003
 6330SOL    HW120431   4.927   1.086   7.167 -2.2621 -0.8917 -0.4157
 6330SOL    HW220432   4.843   1.109   7.290 -2.1738  1.7054 -0.7926
 6331SOL     OW20433   1.291   0.403   9.999  0.1392 -0.1680 -0.5667
 6331SOL    HW120434   1.249   0.317  10.002  0.0541 -0.1123 -0.1236
 6331SOL    HW220435   1.376   0.389  10.041 -0.6440  0.3914  1.2741
 6332SOL     OW20436   0.007   2.293   7.945 -0.1993 -0.4935 -0.3331
 6332SOL    HW120437   0.088   2.309   7.992 -0.6817 -0.1227  0.3926
 6332SOL    HW220438  -0.041   2.232   8.000 -0.0744 -1.3487 -1.1551
 6333SOL     OW20439   5.060   5.594   6.375 -0.1444 -0.0264 -0.3202
 6333SOL    HW120440   5.058   5.499   6.365 -0.4077 -0.1098  0.4502
 6333SOL    HW220441   5.148   5.619   6.347  0.5285 -0.7023  1.0678
 6334SOL     OW20442   3.832   1.564   2.077  0.3000 -0.1594  0.3658
 6334SOL    HW120443   3.831   1.470   2.094 -0.7368 -0.3071 -0.3779
 6334SOL    HW220444   3.862   1.572   1.987 -2.2760 -0.0257 -0.5743
 6335SOL     OW20445   2.136   2.498   9.146 -0.0227  0.6490  0.0778
 6335SOL    HW120446   2.059   2.551   9.124 -1.7147 -1.3177  0.8741
 6335SOL    HW220447   2.100   2.411   9.166  2.4864 -0.4946 -0.0214
 6336SOL     OW20448   2.199   1.881   8.019 -0.7692  0.4431 -0.2283
 6336SOL    HW120449   2.182   1.882   7.925  2.0051  0.0693 -0.7964
 6336SOL    HW220450   2.259   1.954   8.034  0.2368 -0.5741  0.9368
 6337SOL     OW20451   4.908   0.122   7.941 -0.0986 -0.5810 -0.0273
 6337SOL    HW120452   4.952   0.073   7.871 -1.0326  1.2091 -1.9996
 6337SOL    HW220453   4.821   0.083   7.946 -0.9135  0.8590 -1.7407
 6338SOL     OW20454   4.945   0.890   4.177  0.0605 -0.0425 -0.3003
 6338SOL    HW120455   4.958   0.848   4.092  1.6941  0.5611 -0.3843
 6338SOL    HW220456   5.016   0.856   4.231 -0.3909  0.3181  0.5258
 6339SOL     OW20457   1.438   3.550   6.898  0.4955  0.1477  0.2762
 6339SOL    HW120458   1.458   3.618   6.833  0.3907  0.1907  0.2887
 6339SOL    HW220459   1.523   3.520   6.929  0.5461  0.1361  0.1275
 6340SOL     OW20460   6.873   5.166   6.632  0.0392  0.3622  0.2878
 6340SOL    HW120461   6.887   5.260   6.625  2.5941  0.2281  2.3135
 6340SOL    HW220462   6.959   5.127   6.616 -0.7431 -1.5909  0.4966
 6341SOL     OW20463   1.345   2.138   5.309  0.1370 -0.0215  0.8920
 6341SOL    HW120464   1.299   2.105   5.385 -0.2940 -0.2910  0.5221
 6341SOL    HW220465   1.381   2.060   5.267  2.6070  0.3091  2.2023
 6342SOL     OW20466   4.614   0.529   5.330 -0.0028 -0.2491 -0.2378
 6342SOL    HW120467   4.549   0.480   5.380  0.5406  0.3844  1.1265
 6342SOL    HW220468   4.588   0.621   5.341  1.2587  0.0282  0.5591
 6343SOL     OW20469   5.593   3.693  11.735 -0.1914 -0.7557 -0.1632
 6343SOL    HW120470   5.548   3.611  11.755  0.6269 -1.2931 -0.4921
 6343SOL    HW220471   5.628   3.681  11.647  0.0194 -0.0885 -0.1758
 6344SOL     OW20472   2.157   4.526   9.640 -0.3552  0.3860  0.0988
 6344SOL    HW120473   2.179   4.530   9.733 -1.7384  1.1648  0.4126
 6344SOL    HW220474   2.066   4.553   9.635 -0.3634  0.1762 -1.4753
 6345SOL     OW20475   0.567   1.929   2.218  0.2949 -0.9013  0.0424
 6345SOL    HW120476   0.638   1.907   2.158  0.3141 -1.5686  0.3014
 6345SOL    HW220477   0.580   1.871   2.293  0.4093  0.0818  0.7995
 6346SOL     OW20478   3.441   0.607   0.583 -0.1159  0.0080 -0.4695
 6346SOL    HW120479   3.364   0.586   0.530  0.5895 -0.8563 -1.1905
 6346SOL    HW220480   3.438   0.544   0.655 -0.3065  0.2440 -0.2717
 6347SOL     OW20481   2.502   6.188   1.152  0.2280 -0.2556  0.3737
 6347SOL    HW120482   2.518   6.106   1.200  1.5218  0.0028  0.4351
 6347SOL    HW220483   2.408   6.188   1.135  0.1231 -1.5074  0.8219
 6348SOL     OW20484   5.389   7.570   4.376 -0.0919  0.1519 -0.3964
 6348SOL    HW120485   5.417   7.512   4.447  0.2078 -1.7861 -2.0120
 6348SOL    HW220486   5.456   7.639   4.374  0.2413 -0.1072  0.7545
 6349SOL     OW20487   0.066   5.860  10.001  0.5244  0.3816  0.2370
 6349SOL    HW120488  -0.017   5.826   9.968  0.9087 -0.6955  0.3539
 6349SOL    HW220489   0.131   5.797   9.972  1.4197  1.5584 -0.4374
 6350SOL     OW20490   0.523   3.470   7.389  0.2945 -0.2257 -0.0255
 6350SOL    HW120491   0.614   3.483   7.417  0.0266 -0.7860  1.1802
 6350SOL    HW220492   0.526   3.474   7.294  1.5473 -0.0090  0.0112
 6351SOL     OW20493   2.565   0.892   9.444 -0.2827 -0.1168 -0.4918
 6351SOL    HW120494   2.470   0.886   9.452 -0.3437  0.4535 -0.7585
 6351SOL    HW220495   2.598   0.870   9.531 -0.5976 -1.5763 -0.7175
 6352SOL     OW20496   2.348   0.696   5.009 -0.4151  0.1949  0.4441
 6352SOL    HW120497   2.360   0.627   5.074 -0.2403  0.2844  0.5081
 6352SOL    HW220498   2.436   0.732   4.996 -0.0689 -1.1638 -1.3394
 6353SOL     OW20499   5.001   3.449   8.357  0.4514 -0.2272 -0.5581
 6353SOL    HW120500   4.968   3.440   8.447  0.3997 -0.5077 -0.6034
 6353SOL    HW220501   4.927   3.487   8.308  0.5287  0.0644 -0.4538
 6354SOL     OW20502   5.579   0.294   9.270  0.2394  0.0529  0.3041
 6354SOL    HW120503   5.504   0.301   9.329 -0.1333  0.8212 -0.2521
 6354SOL    HW220504   5.586   0.200   9.251  0.9383 -0.3298  2.2831
 6355SOL     OW20505   7.687   4.130   0.085 -0.1517  0.0074  0.0474
 6355SOL    HW120506   7.745   4.118   0.009 -0.8205 -0.0457 -0.4619
 6355SOL    HW220507   7.672   4.041   0.118 -2.5606 -0.3774 -1.8158
 6356SOL     OW20508   4.464   1.379   9.087 -0.0134 -1.0331 -0.9944
 6356SOL    HW120509   4.484   1.431   9.165 -0.6309 -0.2040 -1.3775
 6356SOL    HW220510   4.442   1.292   9.121 -4.2342  0.2736  0.2118
 6357SOL     OW20511   4.461   6.613   8.288  0.0044 -0.0003  0.0942
 6357SOL    HW120512   4.442   6.558   8.212 -1.7732 -0.5567  0.9106
 6357SOL    HW220513   4.547   6.583   8.319  0.4041 -0.2681 -1.2257
 6358SOL     OW20514   0.654   4.887   0.352 -0.4875  0.0051  0.2872
 6358SOL    HW120515   0.630   4.795   0.351  1.2529 -0.4755  0.0062
 6358SOL    HW220516   0.712   4.898   0.277 -2.5747  1.9135 -1.1974
 6359SOL     OW20517   2.922   6.986  11.819 -0.3471  0.0674  0.1268
 6359SOL    HW120518   3.011   7.003  11.787 -0.1464 -0.6559  0.2978
 6359SOL    HW220519   2.898   7.066  11.865 -0.9856  1.5273 -2.5380
 6360SOL     OW20520   6.099   7.331   2.226 -0.0312  0.1269 -0.1735
 6360SOL    HW120521   6.103   7.403   2.164  0.0804 -0.0986 -0.4298
 6360SOL    HW220522   6.145   7.259   2.183 -1.6043 -0.6463 -0.6506
 6361SOL     OW20523   0.795   2.131   6.902  0.1400  0.2235  0.3686
 6361SOL    HW120524   0.718   2.081   6.931  0.7966 -1.2064 -0.2628
 6361SOL    HW220525   0.799   2.205   6.963 -2.1650  0.7750 -0.0318
 6362SOL     OW20526   1.971   6.332  11.208  0.5862  0.2522 -0.1142
 6362SOL    HW120527   1.928   6.416  11.222 -0.9201 -0.6380  0.9654
 6362SOL    HW220528   1.950   6.281  11.287 -0.5572 -1.9299 -1.7254
 6363SOL     OW20529   0.096   0.318   6.596 -0.4262  0.6150  0.2361
 6363SOL    HW120530   0.056   0.235   6.624 -0.6390  0.6787  0.1248
 6363SOL    HW220531   0.181   0.319   6.639  0.0710 -0.2171 -0.6739
 6364SOL     OW20532   4.370   4.201   5.130  0.0773 -0.2474 -0.6170
 6364SOL    HW120533   4.341   4.275   5.077  1.6602  1.9043  1.3138
 6364SOL    HW220534   4.450   4.170   5.087 -0.5055 -0.8173 -1.3394
 6365SOL     OW20535   2.446   5.877   7.164 -0.1499 -0.5561  0.0633
 6365SOL    HW120536   2.441   5.783   7.184  2.6292 -1.3556 -2.2138
 6365SOL    HW220537   2.539   5.897   7.173 -0.5342  1.7207 -0.6219
 6366SOL     OW20538   4.409   7.245   1.679  0.0506 -0.0360  0.3426
 6366SOL    HW120539   4.364   7.190   1.614  0.2441 -0.5919  0.6699
 6366SOL    HW220540   4.366   7.330   1.672 -0.9479 -0.5091  0.5353
 6367SOL     OW20541   1.400   3.423   3.915  0.3133  0.3480  0.0408
 6367SOL    HW120542   1.473   3.463   3.868  1.0566 -2.1808 -1.0894
 6367SOL    HW220543   1.441   3.370   3.983 -0.5322 -0.1418  0.1822
 6368SOL     OW20544   5.825   4.479   6.775  0.1144 -0.3695  0.2535
 6368SOL    HW120545   5.876   4.507   6.852 -0.7339  0.4496  0.5437
 6368SOL    HW220546   5.883   4.497   6.701  0.5391 -0.1514  0.6269
 6369SOL     OW20547   6.515   5.595   0.798 -0.4640 -0.4518  0.9717
 6369SOL    HW120548   6.535   5.510   0.760  1.8241 -0.2809  1.6717
 6369SOL    HW220549   6.481   5.574   0.886  1.2980 -0.6739  1.6468
 6370SOL     OW20550   6.116   5.991   8.144  0.0193 -0.3716  0.2031
 6370SOL    HW120551   6.098   5.925   8.211 -1.1089  1.6310  2.0223
 6370SOL    HW220552   6.184   6.046   8.181  0.8327 -0.3723 -1.2053
 6371SOL     OW20553   4.173   3.342   1.701  0.2366  0.4751 -0.1338
 6371SOL    HW120554   4.222   3.373   1.624  0.2015  1.2516  0.1413
 6371SOL    HW220555   4.214   3.387   1.775  0.1828 -0.1660  0.2862
 6372SOL     OW20556   4.080   0.369   1.029  0.0958  0.7617 -0.1522
 6372SOL    HW120557   4.117   0.435   1.088 -0.6947  1.6639 -0.6429
 6372SOL    HW220558   4.145   0.362   0.958  1.6501 -1.2031  1.3293
 6373SOL     OW20559   1.832   7.510   0.839  0.1288  0.1016  0.5194
 6373SOL    HW120560   1.873   7.452   0.903 -0.7110 -0.5932  0.4452
 6373SOL    HW220561   1.847   7.467   0.755 -2.4193 -1.2424  0.6591
 6374SOL     OW20562   7.311   5.473   6.003  0.1035 -0.0951 -0.2216
 6374SOL    HW120563   7.367   5.407   5.962 -0.3096 -0.5377 -0.0907
 6374SOL    HW220564   7.223   5.454   5.969  0.1237  1.0162 -0.9660
 6375SOL     OW20565   3.670   2.943   4.784 -0.6936  0.5111 -0.1767
 6375SOL    HW120566   3.723   3.004   4.836 -2.2989  1.6983  0.1263
 6375SOL    HW220567   3.667   2.982   4.697  0.2619 -0.4214 -0.6660
 6376SOL     OW20568   2.571   3.110   9.319 -0.0378 -0.0967 -0.8568
 6376SOL    HW120569   2.641   3.172   9.339 -1.3796  1.4700 -0.8496
 6376SOL    HW220570   2.516   3.155   9.256 -0.6936 -1.5766 -1.3895
 6377SOL     OW20571   6.859   3.350  10.950  0.5919  0.4941 -0.1921
 6377SOL    HW120572   6.880   3.264  10.986 -0.2945  0.1274 -0.5346
 6377SOL    HW220573   6.847   3.335  10.857 -1.4798  0.6110  0.0228
 6378SOL     OW20574   3.754   0.875   7.926 -0.1539 -0.3822 -0.2066
 6378SOL    HW120575   3.794   0.789   7.917 -1.2713 -0.9141 -0.2061
 6378SOL    HW220576   3.809   0.920   7.991  1.5028 -0.4099 -1.5205
 6379SOL     OW20577   4.323   7.097   6.753 -0.1032  0.3423 -0.1590
 6379SOL    HW120578   4.342   7.022   6.696 -0.0206  1.4541 -1.6483
 6379SOL    HW220579   4.231   7.118   6.735  0.1120  1.1105 -0.3918
 6380SOL     OW20580   0.614   4.605   0.220 -0.7806 -0.1957  0.7959
 6380SOL    HW120581   0.537   4.548   0.216  0.3756 -1.8065  0.7055
 6380SOL    HW220582   0.687   4.546   0.235  0.6223  1.1494 -0.3480
 6381SOL     OW20583   2.692   5.338   9.846 -0.0652  0.2734  0.2076
 6381SOL    HW120584   2.613   5.384   9.818 -0.5167 -0.3416  0.4387
 6381SOL    HW220585   2.674   5.246   9.827  0.2792  0.0380  0.9752
 6382SOL     OW20586   0.569   0.186   8.285  0.3549  0.4938  0.5278
 6382SOL    HW120587   0.586   0.170   8.378  4.3238 -0.3078 -0.1543
 6382SOL    HW220588   0.655   0.199   8.247 -0.9111 -1.1915 -3.4237
 6383SOL     OW20589   0.117   2.578   3.920  0.2906  0.0862 -0.2762
 6383SOL    HW120590   0.039   2.627   3.945  0.4627  0.7445 -0.9896
 6383SOL    HW220591   0.132   2.518   3.993 -2.1303 -1.6269 -1.0338
 6384SOL     OW20592   3.968   0.122   6.773 -0.3343  0.0143 -0.5261
 6384SOL    HW120593   4.037   0.056   6.768  0.3534  0.6222  0.5914
 6384SOL    HW220594   3.943   0.137   6.682  1.4061  0.2081 -1.0102
 6385SOL     OW20595   5.667   7.497   2.604 -0.1156  0.5379 -0.1723
 6385SOL    HW120596   5.574   7.496   2.626  0.1290 -0.0364  0.8964
 6385SOL    HW220597   5.686   7.408   2.574  0.0901  0.6697 -0.4479
 6386SOL     OW20598   4.858   1.278  11.632  0.0143  0.2985 -0.0873
 6386SOL    HW120599   4.854   1.364  11.589  1.0153 -0.0242 -0.8614
 6386SOL    HW220600   4.894   1.298  11.719 -1.8087  0.9207  0.5794
 6387SOL     OW20601   5.320   5.543   4.577  0.2623  0.4365 -0.0076
 6387SOL    HW120602   5.362   5.457   4.582  0.5448  0.5486 -0.3772
 6387SOL    HW220603   5.228   5.526   4.597  0.6685  0.3614  1.9232
 6388SOL     OW20604   6.478   0.875   6.104 -0.7114 -0.5521  0.5907
 6388SOL    HW120605   6.565   0.915   6.116 -0.1802 -1.8751  1.3542
 6388SOL    HW220606   6.495   0.781   6.103 -2.1074 -0.8188  0.3450
 6389SOL     OW20607   3.492   6.634   5.076 -0.2732 -0.1936  0.4404
 6389SOL    HW120608   3.476   6.669   4.988 -2.4881 -1.2642  0.3541
 6389SOL    HW220609   3.582   6.602   5.073  0.5930  2.0906 -0.5920
 6390SOL     OW20610   6.405   3.242   3.164  0.3950  0.1356 -0.6223
 6390SOL    HW120611   6.328   3.208   3.120  1.5706  1.1120 -3.6985
 6390SOL    HW220612   6.371   3.299   3.233 -1.5544 -1.2385 -0.3768
 6391SOL     OW20613   2.535   6.391   3.087  0.1926  0.1715 -0.5676
 6391SOL    HW120614   2.504   6.462   3.031  0.8414  0.0481 -1.1020
 6391SOL    HW220615   2.547   6.431   3.173 -2.6565 -0.0579  0.0358
 6392SOL     OW20616   5.832   7.873  11.787 -0.3888  0.4042  0.0605
 6392SOL    HW120617   5.907   7.908  11.835 -0.8603 -0.2251  1.3045
 6392SOL    HW220618   5.787   7.950  11.753  0.0030  0.8660  0.5696
 6393SOL     OW20619   1.964   7.705   9.411 -0.0369 -0.2458  0.9237
 6393SOL    HW120620   1.875   7.670   9.416  0.1441 -0.6306  1.5539
 6393SOL    HW220621   1.990   7.692   9.319  0.0661 -1.9150  1.1483
 6394SOL     OW20622   0.184   3.385   8.467  0.5906 -0.3251 -0.1431
 6394SOL    HW120623   0.252   3.325   8.435  1.2503  0.6578 -0.6094
 6394SOL    HW220624   0.183   3.370   8.562  1.3888 -0.4369 -0.1408
 6395SOL     OW20625   4.793   5.087  11.952  0.5910 -0.1701  0.6870
 6395SOL    HW120626   4.750   5.161  11.910  0.3494  0.9105  2.6894
 6395SOL    HW220627   4.729   5.056  12.017  1.2541 -1.1886  0.8761
 6396SOL     OW20628   6.431   2.951   7.711 -0.4852  0.2112  0.3922
 6396SOL    HW120629   6.469   2.972   7.625  0.4981  1.2932  1.0695
 6396SOL    HW220630   6.367   3.021   7.727 -2.6478 -1.4184 -0.5915
 6397SOL     OW20631   4.510   2.054   8.610  0.2757 -0.2565 -0.1364
 6397SOL    HW120632   4.576   2.123   8.615 -1.0313  0.9695  1.9581
 6397SOL    HW220633   4.530   1.997   8.685 -0.7533 -0.0843  0.2948
 6398SOL     OW20634   2.262   4.924   3.485  0.4373 -0.5786 -0.1886
 6398SOL    HW120635   2.239   4.863   3.416  0.3863  0.2157 -0.8851
 6398SOL    HW220636   2.301   4.999   3.440 -0.1254  0.2015  0.5847
 6399SOL     OW20637   6.231   4.965   2.916  0.2509 -0.4114 -0.1113
 6399SOL    HW120638   6.321   4.963   2.884  1.3243  0.7338  2.5845
 6399SOL    HW220639   6.210   4.873   2.934  0.5817 -0.7613 -1.4054
 6400SOL     OW20640   0.008   2.098  11.389 -0.0579 -0.0730 -0.2900
 6400SOL    HW120641  -0.073   2.051  11.370 -0.8401  1.7125 -1.6292
 6400SOL    HW220642   0.017   2.093  11.484 -1.9006 -0.0405 -0.0910
 6401SOL     OW20643   0.618   7.586   1.434 -0.2939  0.1966  0.1018
 6401SOL    HW120644   0.663   7.667   1.408 -1.4207  0.9904  0.5229
 6401SOL    HW220645   0.630   7.527   1.360 -0.3298  1.1159 -0.6580
 6402SOL     OW20646   6.959   3.967  10.533  0.6717 -0.1930 -0.4249
 6402SOL    HW120647   6.883   3.916  10.505 -0.1354  0.4161  0.5584
 6402SOL    HW220648   7.029   3.942  10.473 -0.6840  0.3550 -2.3269
 6403SOL     OW20649   5.964   3.686  12.282  0.3239 -0.2538 -0.3463
 6403SOL    HW120650   6.009   3.722  12.359  1.3971 -2.5786  0.2002
 6403SOL    HW220651   6.026   3.697  12.210 -0.0779  0.5874 -0.5679
 6404SOL     OW20652   4.300   5.805   8.482  0.5001 -0.0258 -0.6105
 6404SOL    HW120653   4.236   5.863   8.441 -1.4219 -0.3190  1.7562
 6404SOL    HW220654   4.338   5.856   8.553  0.6965 -0.7921 -0.1469
 6405SOL     OW20655   6.115   6.236   2.791  0.0693  0.3159 -0.3626
 6405SOL    HW120656   6.103   6.328   2.814 -0.0524  0.2639 -0.2137
 6405SOL    HW220657   6.042   6.216   2.733  0.9014  0.7052 -1.5795
 6406SOL     OW20658   7.091   1.413  12.345 -0.5236 -0.2743  0.4015
 6406SOL    HW120659   7.040   1.494  12.355 -1.9829 -0.2648 -4.4483
 6406SOL    HW220660   7.037   1.345  12.385 -0.6873  0.7189  1.9203
 6407SOL     OW20661   0.842   1.406  11.574  0.8442  0.1840  0.0018
 6407SOL    HW120662   0.893   1.354  11.637  2.1184  2.2993  0.8200
 6407SOL    HW220663   0.853   1.359  11.491  1.1119 -1.3650  0.8625
 6408SOL     OW20664   0.759   5.764  10.429  0.2055 -0.3470 -0.0205
 6408SOL    HW120665   0.724   5.827  10.367  0.5751  0.0354  0.1481
 6408SOL    HW220666   0.744   5.803  10.515 -0.4068 -0.9254  0.1419
 6409SOL     OW20667   5.272   6.492   1.885 -0.3655  0.0160  0.2143
 6409SOL    HW120668   5.341   6.427   1.897 -0.6657 -0.3812 -0.1805
 6409SOL    HW220669   5.274   6.511   1.791 -0.1193  0.7595  0.3662
 6410SOL     OW20670   6.017   1.303   8.491  0.2234 -1.4275 -0.3482
 6410SOL    HW120671   5.983   1.237   8.431 -0.0415 -1.2163 -0.4298
 6410SOL    HW220672   5.995   1.269   8.578 -1.2789 -0.7240 -0.4211
 6411SOL     OW20673   0.408   2.560   1.258  0.0574  0.5747 -0.3905
 6411SOL    HW120674   0.334   2.618   1.239 -0.5599 -0.3576 -0.9212
 6411SOL    HW220675   0.474   2.617   1.297 -0.2858  1.7695 -1.4663
 6412SOL     OW20676   0.875   2.689   7.200 -0.0985  0.2862  0.4152
 6412SOL    HW120677   0.925   2.714   7.122 -0.4195  1.1432  0.4719
 6412SOL    HW220678   0.942   2.658   7.261  0.2556  0.4300  0.1078
 6413SOL     OW20679   0.498   5.393   3.156  0.2592 -0.3845 -0.2212
 6413SOL    HW120680   0.409   5.421   3.137 -0.0867 -0.7228  0.8038
 6413SOL    HW220681   0.529   5.351   3.076 -0.6333 -0.5786 -0.4701
 6414SOL     OW20682   6.281   3.955   4.163 -0.2196 -0.0256  0.9780
 6414SOL    HW120683   6.235   3.957   4.079 -0.9501 -0.5104  1.3595
 6414SOL    HW220684   6.264   4.040   4.202 -0.4611 -0.0552  0.9393
 6415SOL     OW20685   1.328   2.598   0.145 -0.2252  0.3228  0.2092
 6415SOL    HW120686   1.360   2.513   0.174 -1.3107  0.2420  1.2348
 6415SOL    HW220687   1.407   2.647   0.121  0.4524 -0.7499  0.1967
 6416SOL     OW20688   1.162   6.390   7.506  0.0431  0.3280 -0.3356
 6416SOL    HW120689   1.255   6.367   7.503 -0.3660 -1.3990 -0.5891
 6416SOL    HW220690   1.140   6.415   7.416  0.3621  1.2788 -0.1665
 6417SOL     OW20691   0.604   4.340   6.211  0.4023 -0.6497  1.1264
 6417SOL    HW120692   0.680   4.382   6.251  2.4892 -0.5269 -2.4746
 6417SOL    HW220693   0.642   4.273   6.153 -2.1541 -0.1809 -1.3160
 6418SOL     OW20694   0.803   1.217   1.312 -0.3933  0.0747 -0.5016
 6418SOL    HW120695   0.737   1.216   1.242 -0.5323 -1.8465 -0.4027
 6418SOL    HW220696   0.753   1.201   1.392  0.0976 -0.6736 -0.3378
 6419SOL     OW20697   1.600   7.148  12.084 -0.0718  0.0324 -0.3295
 6419SOL    HW120698   1.505   7.136  12.086 -0.1554  0.5347  1.5682
 6419SOL    HW220699   1.633   7.086  12.149  1.0990 -1.3197 -2.1493
 6420SOL     OW20700   7.963   0.296  10.327 -0.1236  0.5693 -0.2528
 6420SOL    HW120701   8.059   0.290  10.326 -0.0631 -0.6833  2.7533
 6420SOL    HW220702   7.937   0.281  10.236  2.4635 -0.2995 -0.9371
 6421SOL     OW20703   2.810   7.403   5.874 -1.0673 -0.3035  0.0175
 6421SOL    HW120704   2.768   7.359   5.801 -1.2817 -0.3976  0.1987
 6421SOL    HW220705   2.900   7.369   5.874 -1.3289 -1.0220  0.3787
 6422SOL     OW20706   2.952   1.021   6.934  0.4323  0.2903  0.7118
 6422SOL    HW120707   2.981   0.930   6.920  1.0316  0.3837  1.2964
 6422SOL    HW220708   2.909   1.045   6.852  0.1487 -0.5702  0.6030
 6423SOL     OW20709   7.967   6.472   6.726 -0.3243  0.9058 -0.3147
 6423SOL    HW120710   7.906   6.450   6.655  0.8491 -0.2610 -1.0167
 6423SOL    HW220711   7.992   6.387   6.762  1.5980  1.2880 -0.6738
 6424SOL     OW20712   2.070   4.968   8.870  0.3401  0.0943  0.6590
 6424SOL    HW120713   2.138   5.010   8.924  1.0526 -1.4466  1.0158
 6424SOL    HW220714   2.106   4.969   8.781 -1.4855  4.0341 -0.2342
 6425SOL     OW20715   4.182   6.584   3.011  0.1256 -0.2610 -0.0103
 6425SOL    HW120716   4.126   6.508   2.992 -0.6227  0.1301  0.5774
 6425SOL    HW220717   4.238   6.593   2.934  3.7752 -4.4207  1.6890
 6426SOL     OW20718   3.349   7.606   3.474  0.4613  0.6514  0.0570
 6426SOL    HW120719   3.337   7.599   3.379 -1.4465 -0.5302  0.3416
 6426SOL    HW220720   3.282   7.668   3.502  0.5396  0.4344  0.7406
 6427SOL     OW20721   0.853   6.085   0.066 -0.0667 -0.1565 -0.1014
 6427SOL    HW120722   0.864   6.045   0.153 -0.0003 -0.2746 -0.1646
 6427SOL    HW220723   0.897   6.170   0.074  2.6171 -1.3443 -0.8901
 6428SOL     OW20724   1.867   7.555   4.333  0.3210  0.2874 -0.2298
 6428SOL    HW120725   1.899   7.531   4.247 -0.7508 -1.2527 -0.2459
 6428SOL    HW220726   1.820   7.477   4.364 -3.1235  2.1906 -0.1217
 6429SOL     OW20727   4.278   6.597   8.506 -0.0609  0.1460 -0.0362
 6429SOL    HW120728   4.337   6.612   8.432  0.6750 -0.0479  0.5088
 6429SOL    HW220729   4.294   6.670   8.566 -0.9456  0.5208 -0.2370
 6430SOL     OW20730   5.667   3.946   7.897 -0.4608 -0.1441 -0.1909
 6430SOL    HW120731   5.721   4.014   7.938  2.3835 -1.3222 -1.6936
 6430SOL    HW220732   5.581   3.987   7.886  0.5456  2.4551  0.8256
 6431SOL     OW20733   5.035   7.820   5.170  0.3088  0.1037  0.3006
 6431SOL    HW120734   5.109   7.866   5.210 -0.2049  1.1193  0.1065
 6431SOL    HW220735   5.038   7.732   5.208  1.7835  0.0360  0.0759
 6432SOL     OW20736   3.823   2.040   1.252  0.2140 -0.3746  0.0055
 6432SOL    HW120737   3.897   1.980   1.263 -0.1329 -0.6054  1.1748
 6432SOL    HW220738   3.746   1.987   1.272 -0.3041 -0.1804 -1.3650
 6433SOL     OW20739   0.400   2.054   3.062  0.3030 -0.0673 -0.2378
 6433SOL    HW120740   0.390   2.138   3.107 -0.0823 -0.4222  0.3470
 6433SOL    HW220741   0.311   2.021   3.052  0.2741  0.4314 -2.1256
 6434SOL     OW20742   6.735   5.516   5.012 -1.1438 -0.2763 -0.4024
 6434SOL    HW120743   6.641   5.511   4.993 -1.2185  0.0700 -0.1315
 6434SOL    HW220744   6.740   5.557   5.098 -0.7326  0.0206 -0.5648
 6435SOL     OW20745   2.240   5.460   6.673 -0.0025 -0.6283 -0.7316
 6435SOL    HW120746   2.238   5.373   6.713  1.4730 -1.1460 -1.7348
 6435SOL    HW220747   2.147   5.485   6.666 -0.3912 -1.3157  1.2062
 6436SOL     OW20748   0.670   6.153   4.290 -0.0798 -0.3305 -0.2783
 6436SOL    HW120749   0.655   6.091   4.361  0.5700  1.3163  1.3738
 6436SOL    HW220750   0.741   6.114   4.239 -0.2556 -1.3369  0.2157
 6437SOL     OW20751   2.961   2.449   8.348 -0.1132 -0.0374 -0.5133
 6437SOL    HW120752   2.974   2.371   8.294  2.2441 -1.6951  2.1875
 6437SOL    HW220753   3.028   2.510   8.319  0.7572 -0.6898  0.0841
 6438SOL     OW20754   4.521   0.272   7.926  0.3091 -0.2911  0.0093
 6438SOL    HW120755   4.447   0.230   7.969 -0.0975  0.0516 -0.3498
 6438SOL    HW220756   4.485   0.309   7.846  0.7759  0.2836  0.0568
 6439SOL     OW20757   2.350   7.358   4.576  0.1743 -0.6957 -0.4038
 6439SOL    HW120758   2.353   7.267   4.547  0.7490 -0.6404 -0.5286
 6439SOL    HW220759   2.385   7.408   4.502  4.0405 -0.7646  1.1911
 6440SOL     OW20760   1.283   6.387  11.128  0.5063 -0.0273  0.1938
 6440SOL    HW120761   1.276   6.306  11.077 -0.3198 -0.8891  1.6189
 6440SOL    HW220762   1.377   6.402  11.136  0.6731 -0.8935 -0.0102
 6441SOL     OW20763   6.083   2.473  11.215  0.1809 -0.0017 -0.2590
 6441SOL    HW120764   6.125   2.388  11.209 -2.3031 -1.6059  2.3101
 6441SOL    HW220765   6.021   2.475  11.142  0.0577 -0.5344 -0.1748
 6442SOL     OW20766   1.764   4.572  12.351 -0.2222 -0.9033 -0.1851
 6442SOL    HW120767   1.858   4.575  12.337 -0.2863  0.8403 -0.4104
 6442SOL    HW220768   1.741   4.479  12.343  1.7345 -1.6240  1.7305
 6443SOL     OW20769   2.882   4.742   5.648  0.4953  0.2315 -0.5223
 6443SOL    HW120770   2.940   4.773   5.579  0.2250  2.7870  0.2739
 6443SOL    HW220771   2.824   4.817   5.666 -0.1590 -0.7071  1.6849
 6444SOL     OW20772   6.356   1.572   5.801 -0.2107 -0.2899 -0.6441
 6444SOL    HW120773   6.267   1.553   5.831  0.3514 -2.4162 -0.1257
 6444SOL    HW220774   6.345   1.644   5.739 -1.9171  1.4337  1.4725
 6445SOL     OW20775   7.453   6.918   1.940 -0.2567  0.0243  0.2496
 6445SOL    HW120776   7.426   6.829   1.918  0.6335  0.1773 -1.6686
 6445SOL    HW220777   7.372   6.963   1.962 -1.1102 -0.5292 -1.5625
 6446SOL     OW20778   3.619   2.335   6.289  0.2171 -0.4117  0.3545
 6446SOL    HW120779   3.600   2.362   6.379 -0.1783 -1.0659  0.4783
 6446SOL    HW220780   3.676   2.403   6.255 -0.4367  0.3625  0.7757
 6447SOL     OW20781   4.749   2.326   3.157  0.3041  0.2718  0.0671
 6447SOL    HW120782   4.742   2.311   3.063  0.1092  0.2971  0.0788
 6447SOL    HW220783   4.674   2.282   3.195 -0.1099  1.0135  0.1306
 6448SOL     OW20784   5.097   1.678   9.013 -0.5526 -0.2729  0.6368
 6448SOL    HW120785   5.187   1.660   8.984  0.0893  0.5408  2.0027
 6448SOL    HW220786   5.097   1.772   9.032 -1.4040 -0.4492  1.5827
 6449SOL     OW20787   6.599   5.328   4.088  0.5020 -0.5969  0.1165
 6449SOL    HW120788   6.587   5.275   4.167  0.7728 -0.7687  0.0415
 6449SOL    HW220789   6.518   5.314   4.038 -0.1476  0.3652  0.8570
 6450SOL     OW20790   1.439   2.063   6.040  0.5908  0.3462 -0.5894
 6450SOL    HW120791   1.499   2.058   6.115  0.7352  2.3320 -0.5155
 6450SOL    HW220792   1.361   2.106   6.074 -0.6831 -1.6370 -0.8465
 6451SOL     OW20793   6.730   0.049   1.837 -0.0637 -0.5521  0.0779
 6451SOL    HW120794   6.650   0.089   1.802 -0.8341 -1.3954  0.8044
 6451SOL    HW220795   6.751  -0.021   1.776  0.8304  0.4306 -0.7660
 6452SOL     OW20796   1.244   6.837   3.747 -0.1297  0.1922  0.4254
 6452SOL    HW120797   1.290   6.805   3.824 -0.7397 -2.3087 -0.1617
 6452SOL    HW220798   1.304   6.819   3.674 -0.2886  0.8883  0.1129
 6453SOL     OW20799   7.665   0.694   5.002  0.0268  0.2061  0.2761
 6453SOL    HW120800   7.731   0.746   4.956 -0.5466  0.1625 -0.6241
 6453SOL    HW220801   7.632   0.632   4.936  0.5378 -1.1720  1.2589
 6454SOL     OW20802   2.431   6.042   9.165 -0.2369  0.2585  0.3415
 6454SOL    HW120803   2.375   6.113   9.133 -0.6598 -0.8769 -1.6159
 6454SOL    HW220804   2.399   5.964   9.118  0.0019 -1.3049  2.6243
 6455SOL     OW20805   7.432   6.267   8.261  0.6363 -0.2540 -0.7848
 6455SOL    HW120806   7.484   6.345   8.242  0.3947  0.4192  1.1193
 6455SOL    HW220807   7.497   6.197   8.271  1.0130  0.1271 -0.5179
 6456SOL     OW20808   1.546   5.792   5.976  0.0986 -0.0123 -0.0786
 6456SOL    HW120809   1.463   5.839   5.988  0.0747 -0.4127  1.6182
 6456SOL    HW220810   1.598   5.817   6.052  0.9014 -1.0685 -0.2625
 6457SOL     OW20811   5.499   1.850  11.452  0.5386 -0.3960  0.1652
 6457SOL    HW120812   5.533   1.761  11.440  1.8328 -0.4562  3.4536
 6457SOL    HW220813   5.552   1.903  11.392 -0.7691 -1.8027 -2.4460
 6458SOL     OW20814   0.296   6.917  11.138 -0.6743 -0.4648  0.2288
 6458SOL    HW120815   0.272   6.835  11.181  0.6201 -0.8133  0.3316
 6458SOL    HW220816   0.217   6.944  11.092 -1.2460 -1.5430  0.5424
 6459SOL     OW20817   7.938   2.726   2.475  0.4781 -0.0611 -0.7618
 6459SOL    HW120818   7.911   2.796   2.415 -0.9726  1.3544  1.3595
 6459SOL    HW220819   8.009   2.765   2.526 -0.1246 -0.1997  0.2189
 6460SOL     OW20820   2.772   0.023   5.128  0.2462  0.5680 -0.4425
 6460SOL    HW120821   2.751   0.081   5.055 -0.9855 -1.4384 -1.8232
 6460SOL    HW220822   2.687  -0.007   5.160  0.8067  0.5387  1.1235
 6461SOL     OW20823   7.614   0.804   6.633  0.4590 -0.5848 -0.1801
 6461SOL    HW120824   7.531   0.805   6.586  0.5904  0.3958 -0.4135
 6461SOL    HW220825   7.676   0.767   6.571  0.7198  1.1025 -0.9715
 6462SOL     OW20826   1.556   1.783   6.701  0.4318 -0.1314  0.2462
 6462SOL    HW120827   1.554   1.878   6.716 -3.6870  0.0763 -0.4315
 6462SOL    HW220828   1.593   1.747   6.781  0.8134  1.9698  1.0970
 6463SOL     OW20829   6.913   4.501   4.617  0.5044  0.1613 -0.0558
 6463SOL    HW120830   6.840   4.496   4.556  1.2634  2.0188 -1.1965
 6463SOL    HW220831   6.901   4.427   4.676 -1.6035 -0.2684 -0.9656
 6464SOL     OW20832   6.035   7.622   4.559 -0.4850 -0.4684 -0.0643
 6464SOL    HW120833   6.065   7.712   4.545  0.1943 -0.7136 -0.2034
 6464SOL    HW220834   6.064   7.601   4.648 -1.1425 -0.3583  0.1815
 6465SOL     OW20835   0.992   7.135  12.264  0.3970  1.0330 -0.0366
 6465SOL    HW120836   1.029   7.101  12.345  0.0535  0.9909  0.1039
 6465SOL    HW220837   0.952   7.219  12.289  0.3993  1.0789 -0.1858
 6466SOL     OW20838   2.240   4.291  10.642  0.5895 -0.0576  0.6748
 6466SOL    HW120839   2.234   4.196  10.639 -0.1289 -0.0029  0.1435
 6466SOL    HW220840   2.151   4.320  10.663  0.4638  0.5438 -0.5945
 6467SOL     OW20841   0.011   2.505   4.920  0.0334 -0.2756  0.0665
 6467SOL    HW120842   0.074   2.462   4.978  0.1899 -2.0500 -1.3289
 6467SOL    HW220843  -0.001   2.592   4.958  0.9509 -0.9759  2.1117
 6468SOL     OW20844   5.129   4.272   3.338  0.2652  0.5214 -0.3207
 6468SOL    HW120845   5.039   4.242   3.326  0.7190 -1.3345  0.4430
 6468SOL    HW220846   5.162   4.284   3.249 -0.7294  1.2615 -0.6073
 6469SOL     OW20847   5.416   6.011   2.011 -0.0098  0.3859 -0.5173
 6469SOL    HW120848   5.467   6.004   2.092 -3.1435  1.8848  1.8095
 6469SOL    HW220849   5.374   5.925   2.002 -1.0319  0.7434  0.5447
 6470SOL     OW20850   6.675   2.957   3.676  0.4528 -0.5559  0.3294
 6470SOL    HW120851   6.665   3.048   3.704  1.0670 -0.4347  0.1824
 6470SOL    HW220852   6.767   2.950   3.649 -0.2241 -0.4802 -2.3035
 6471SOL     OW20853   0.176   6.910   6.974 -0.8191  1.1517  0.5717
 6471SOL    HW120854   0.177   6.815   6.992  0.0313  0.9054 -0.6451
 6471SOL    HW220855   0.250   6.944   7.023 -2.6009  1.6638  3.1133
 6472SOL     OW20856   6.507   5.823   3.316 -0.4446 -0.4072 -1.3447
 6472SOL    HW120857   6.460   5.826   3.233 -0.1747  0.3673 -1.4770
 6472SOL    HW220858   6.565   5.747   3.308 -0.0848 -0.0650 -2.0548
 6473SOL     OW20859   4.933   2.391  10.386  0.2360  0.0520 -0.1313
 6473SOL    HW120860   4.996   2.341  10.438  0.8181 -0.1399 -0.9993
 6473SOL    HW220861   4.887   2.445  10.449  1.3960  0.3244  0.5076
 6474SOL     OW20862   2.128   1.374  10.729  0.4469  0.0499 -0.1369
 6474SOL    HW120863   2.199   1.439  10.730  1.6080 -1.1716  1.2889
 6474SOL    HW220864   2.072   1.402  10.656  0.3644  3.1673  0.9570
 6475SOL     OW20865   4.626   6.655  11.234  0.4227  0.8504  0.1850
 6475SOL    HW120866   4.576   6.684  11.158  0.9284 -0.6603 -0.7628
 6475SOL    HW220867   4.634   6.733  11.289 -2.4097  1.3304  0.0802
 6476SOL     OW20868   7.596   6.887  10.098  0.1947  0.3329  0.2149
 6476SOL    HW120869   7.514   6.874  10.050 -0.3982  0.3126  1.2126
 6476SOL    HW220870   7.626   6.799  10.118 -0.2678  0.3545  1.0438
 6477SOL     OW20871   0.435   7.977  11.428  0.3774  0.3703 -0.3669
 6477SOL    HW120872   0.484   7.994  11.508  0.7136  0.1799 -0.5277
 6477SOL    HW220873   0.494   8.005  11.358 -0.4361  1.8219 -0.5103
 6478SOL     OW20874   4.946   5.451   4.771  0.1155 -0.2133  0.3438
 6478SOL    HW120875   4.984   5.408   4.695  1.0654  1.8665 -0.4327
 6478SOL    HW220876   4.937   5.381   4.836 -1.1912 -2.1671 -1.7875
 6479SOL     OW20877   2.252   3.271  12.238 -0.0053  0.4842 -0.1226
 6479SOL    HW120878   2.257   3.256  12.333 -0.4364 -0.5152 -0.2478
 6479SOL    HW220879   2.180   3.333  12.228  0.2559  0.8489  0.2291
 6480SOL     OW20880   7.543   6.008   6.032  0.6623 -0.4243 -0.0427
 6480SOL    HW120881   7.541   5.973   5.943  0.9632 -0.9432  0.1500
 6480SOL    HW220882   7.567   6.100   6.021  1.1064 -0.5889 -0.4668
 6481SOL     OW20883   7.302   1.065  11.519 -0.1560  0.4237  0.5136
 6481SOL    HW120884   7.324   1.081  11.428 -0.6085 -0.7925  0.1606
 6481SOL    HW220885   7.301   1.151  11.560  0.2748  0.9587 -0.5785
 6482SOL     OW20886   6.055   1.664   5.491  0.0680 -0.7849  0.2278
 6482SOL    HW120887   5.970   1.686   5.452  0.8600  1.3731 -0.3786
 6482SOL    HW220888   6.033   1.606   5.564 -1.8017 -1.3940 -0.7547
 6483SOL     OW20889   1.717   1.757   3.013 -0.0054  0.0254  0.1089
 6483SOL    HW120890   1.787   1.745   2.949 -1.0553 -0.0738 -1.0598
 6483SOL    HW220891   1.638   1.724   2.969 -0.7389 -0.1362  1.4997
 6484SOL     OW20892   3.714   0.511  12.357 -0.6663 -0.0112  0.5821
 6484SOL    HW120893   3.619   0.505  12.357 -0.6742  0.0921  0.1042
 6484SOL    HW220894   3.740   0.487  12.268 -0.1404 -1.8205  1.1741
 6485SOL     OW20895   1.994   1.169   0.137  0.5620  0.0329 -0.1060
 6485SOL    HW120896   2.087   1.189   0.130  0.5556  0.1604  0.1451
 6485SOL    HW220897   1.973   1.124   0.056  0.3085  2.0923 -1.2618
 6486SOL     OW20898   1.624   6.350   9.815 -0.1905  0.5143  0.0206
 6486SOL    HW120899   1.715   6.380   9.809 -0.1102  1.0244  2.6355
 6486SOL    HW220900   1.579   6.417   9.866 -2.0003  0.1201 -0.9634
 6487SOL     OW20901   6.336   2.933   1.944 -0.0366 -0.2076  0.1270
 6487SOL    HW120902   6.429   2.955   1.938 -0.0699 -0.1773 -0.3470
 6487SOL    HW220903   6.327   2.850   1.898 -0.6683  1.1060 -2.3110
 6488SOL     OW20904   6.797   7.280   5.763  0.3963  0.0577  0.0431
 6488SOL    HW120905   6.779   7.187   5.774  0.2375  0.3056  2.2352
 6488SOL    HW220906   6.852   7.303   5.837 -0.6601  1.9962  0.2966
 6489SOL     OW20907   6.956   3.556  10.568 -0.4928  0.0719  0.2988
 6489SOL    HW120908   7.039   3.570  10.613  0.8119  1.1351 -2.2535
 6489SOL    HW220909   6.959   3.465  10.540  0.1621  0.2919 -0.3777
 6490SOL     OW20910   3.631   0.093   8.130  0.3159 -0.0127  0.4337
 6490SOL    HW120911   3.566   0.056   8.189 -1.3751  1.5286 -0.3595
 6490SOL    HW220912   3.656   0.176   8.171  0.4555  0.2306 -0.1392
 6491SOL     OW20913   2.341   1.428   0.244  0.2767  0.0606 -0.5475
 6491SOL    HW120914   2.287   1.362   0.287 -1.7410  0.6103 -2.0898
 6491SOL    HW220915   2.396   1.379   0.182 -0.1124 -0.3052 -0.6030
 6492SOL     OW20916   6.149   5.646   6.110 -0.7822  0.2709  0.3516
 6492SOL    HW120917   6.169   5.553   6.121 -1.4059  0.0912  0.0192
 6492SOL    HW220918   6.203   5.674   6.036 -1.3058 -0.0749 -0.1787
 6493SOL     OW20919   2.897   1.738  10.910  0.7865 -0.5351 -0.4642
 6493SOL    HW120920   2.916   1.744  11.003  1.6913  0.0166 -0.6715
 6493SOL    HW220921   2.806   1.768  10.901 -0.1306 -2.7481  0.4934
 6494SOL     OW20922   4.028   5.676   8.716  0.2042 -0.3217  0.0900
 6494SOL    HW120923   3.989   5.605   8.665 -1.4773  0.8076 -0.2428
 6494SOL    HW220924   4.044   5.637   8.802  1.0176 -1.6091 -0.6137
 6495SOL     OW20925   7.195   6.884   7.323  0.4995  0.1472  0.0392
 6495SOL    HW120926   7.133   6.957   7.326 -0.2386 -0.4841  0.9336
 6495SOL    HW220927   7.258   6.903   7.392 -0.7201 -0.9052  1.5021
 6496SOL     OW20928   4.902   1.706   3.451 -0.0204  0.0600 -0.2032
 6496SOL    HW120929   4.929   1.796   3.431  0.8063 -0.3358 -0.9392
 6496SOL    HW220930   4.967   1.674   3.514 -0.2475 -0.0662 -0.0290
 6497SOL     OW20931   6.324   4.629   7.104 -0.2329  0.1632 -0.1430
 6497SOL    HW120932   6.259   4.581   7.156  0.7553  0.0237  1.0238
 6497SOL    HW220933   6.318   4.591   7.016  0.9351 -2.6372  0.8617
 6498SOL     OW20934   6.526   6.096   8.539  0.2873 -0.3129  0.1595
 6498SOL    HW120935   6.572   6.180   8.532 -0.7744  0.2136 -0.9303
 6498SOL    HW220936   6.583   6.034   8.494 -0.4650  0.5401 -2.1263
 6499SOL     OW20937   1.162   6.515   8.497 -0.1956  0.3413 -0.2034
 6499SOL    HW120938   1.175   6.518   8.592  0.4332  3.6524 -0.2702
 6499SOL    HW220939   1.070   6.539   8.485  0.0255  1.1145 -0.4212
 6500SOL     OW20940   7.352   0.534   1.394 -0.1020  0.4726  0.5927
 6500SOL    HW120941   7.302   0.616   1.402 -0.0965  0.4909  0.4500
 6500SOL    HW220942   7.443   0.560   1.405 -0.2198  0.2104  2.4538
 6501SOL     OW20943   7.395   3.494   9.597 -0.0949 -0.1863 -0.7159
 6501SOL    HW120944   7.338   3.430   9.554  2.1415 -1.4161 -2.0544
 6501SOL    HW220945   7.395   3.570   9.540 -0.5632 -0.0942 -0.5922
 6502SOL     OW20946   0.741   7.582   8.572  0.5543  0.4068  0.0409
 6502SOL    HW120947   0.743   7.487   8.586  0.7644  0.4703  0.4578
 6502SOL    HW220948   0.653   7.599   8.538  0.6758  0.0027 -0.5034
 6503SOL     OW20949   0.735   0.992   9.586 -0.1534  0.0565  0.2054
 6503SOL    HW120950   0.716   1.043   9.507  0.0612  1.0292  0.7696
 6503SOL    HW220951   0.821   0.954   9.570 -0.4195 -0.3361 -0.3190
 6504SOL     OW20952   5.856   6.925  10.920  0.0215 -0.3081  0.3615
 6504SOL    HW120953   5.820   6.925  11.008 -3.1855 -0.2884 -0.8263
 6504SOL    HW220954   5.851   6.834  10.892  1.2487 -0.3558  0.2180
 6505SOL     OW20955   7.945   5.859   3.822  0.2503 -0.4402  0.1010
 6505SOL    HW120956   7.888   5.907   3.762 -1.4206 -0.6381  1.4683
 6505SOL    HW220957   8.001   5.927   3.860  0.5725 -0.1622 -0.8317
 6506SOL     OW20958   0.853   7.210   4.121 -0.1473 -0.1432  0.0053
 6506SOL    HW120959   0.835   7.127   4.077  0.1355 -0.6763  0.8839
 6506SOL    HW220960   0.884   7.268   4.051 -0.5516 -0.7121 -0.6484
 6507SOL     OW20961   0.024   5.283  11.578 -0.2713  0.3011 -0.2193
 6507SOL    HW120962   0.052   5.261  11.489 -0.5669  0.4837 -0.3562
 6507SOL    HW220963  -0.050   5.225  11.595  0.8086 -0.9292  0.5285
 6508SOL     OW20964   4.545   2.214  12.362  0.2542 -0.2900  0.4084
 6508SOL    HW120965   4.536   2.140  12.301  1.2608  0.1182 -0.2699
 6508SOL    HW220966   4.584   2.175  12.441  1.1125 -0.4497 -0.0751
 6509SOL     OW20967   2.588   3.634   2.915  0.3938  0.2448  0.4902
 6509SOL    HW120968   2.519   3.611   2.976  0.1901  2.7800  1.3484
 6509SOL    HW220969   2.555   3.609   2.829 -0.7015 -0.4325  1.0966
 6510SOL     OW20970   6.632   0.287   2.019  0.1949 -0.5206 -0.3474
 6510SOL    HW120971   6.726   0.298   2.031  0.3521 -0.9323 -1.1393
 6510SOL    HW220972   6.612   0.337   1.940  0.2258 -2.5134 -1.6918
 6511SOL     OW20973   1.093   1.928   8.789  0.1551  0.1254 -0.8446
 6511SOL    HW120974   1.060   1.873   8.859  1.0161  0.1883 -0.3748
 6511SOL    HW220975   1.187   1.911   8.788  0.0677 -0.4380 -2.4804
 6512SOL     OW20976   5.141   3.658   3.224 -0.3715 -0.2686 -0.0292
 6512SOL    HW120977   5.122   3.680   3.315  0.5867  0.7540 -0.0530
 6512SOL    HW220978   5.150   3.563   3.223  0.9717 -0.1839  1.2296
 6513SOL     OW20979   4.446   2.618   9.769 -0.5662  0.0975 -0.2515
 6513SOL    HW120980   4.492   2.610   9.685  0.1397  1.5573 -0.0268
 6513SOL    HW220981   4.401   2.534   9.779 -0.3561 -0.2526 -1.9047
 6514SOL     OW20982   5.473   3.574   6.576 -0.2062  0.0330  0.3827
 6514SOL    HW120983   5.409   3.600   6.511 -0.9864  0.9233  1.4630
 6514SOL    HW220984   5.421   3.544   6.651  0.6648 -1.9068  0.2629
 6515SOL     OW20985   3.106   4.939   7.823  0.0977 -0.0285 -0.0574
 6515SOL    HW120986   3.028   4.993   7.831  0.5118  0.6233 -0.3398
 6515SOL    HW220987   3.112   4.918   7.730 -0.5858 -1.3731  0.1739
 6516SOL     OW20988   2.020   7.525   1.495 -0.1764 -0.3072  0.1461
 6516SOL    HW120989   1.969   7.494   1.570 -0.5918 -2.0995 -0.8309
 6516SOL    HW220990   2.100   7.473   1.498  0.1468  0.1695 -0.2113
 6517SOL     OW20991   5.991   6.943   7.574 -0.5844 -0.1042 -0.6956
 6517SOL    HW120992   5.994   7.038   7.570 -4.8510  0.3062  0.9107
 6517SOL    HW220993   6.000   6.915   7.483  3.5180  1.4404 -0.9814
 6518SOL     OW20994   6.419   2.109  10.850 -0.0823  0.1631  0.1944
 6518SOL    HW120995   6.498   2.117  10.903  0.5883  0.3498 -0.7901
 6518SOL    HW220996   6.396   2.016  10.855  1.1803 -0.2368 -0.8308
 6519SOL     OW20997   5.902   0.894   1.915 -0.2465  0.1341  0.2638
 6519SOL    HW120998   5.992   0.891   1.882 -0.4715  1.7615 -0.5974
 6519SOL    HW220999   5.860   0.963   1.864 -1.4029  0.8404  2.0792
 6520SOL     OW21000   4.392   2.199   1.159  0.5328  0.2532  0.5131
 6520SOL    HW121001   4.330   2.206   1.086  0.4505  0.2456  0.5824
 6520SOL    HW221002   4.348   2.242   1.232  0.6832  0.4063  0.5151
 6521SOL     OW21003   4.655   1.466   1.527  0.3100  0.0290  0.3117
 6521SOL    HW121004   4.623   1.555   1.540  1.9239  1.1533 -2.4615
 6521SOL    HW221005   4.743   1.466   1.566  1.6706  0.7865 -2.5272
 6522SOL     OW21006   0.315   4.377   4.120  0.3058 -0.3507  0.2985
 6522SOL    HW121007   0.272   4.350   4.039 -1.0030  1.0036  0.4777
 6522SOL    HW221008   0.408   4.364   4.104  0.0921  0.0534 -1.4970
 6523SOL     OW21009   6.077   6.507   5.734 -0.4505 -0.7651  0.3825
 6523SOL    HW121010   6.164   6.546   5.729 -0.8388 -0.0259 -0.8864
 6523SOL    HW221011   6.017   6.581   5.726 -1.2045 -1.5495 -1.8189
 6524SOL     OW21012   5.402   4.696   3.680 -0.1287  0.6739 -0.2175
 6524SOL    HW121013   5.419   4.673   3.589 -0.7747 -0.0997 -0.1439
 6524SOL    HW221014   5.346   4.626   3.713  1.5006  0.0011  1.2720
 6525SOL     OW21015   2.876   7.357   1.602 -0.3796 -0.1392 -0.3309
 6525SOL    HW121016   2.881   7.420   1.674 -1.1963  0.4666 -0.7895
 6525SOL    HW221017   2.884   7.271   1.645  0.1894  0.2474  0.3616
 6526SOL     OW21018   6.024   7.399   5.974  0.2131  0.0758  0.5461
 6526SOL    HW121019   6.071   7.474   5.938  0.4778  0.7108  2.1279
 6526SOL    HW221020   6.079   7.369   6.047 -0.7854 -0.5031  1.0855
 6527SOL     OW21021   7.758   7.133   5.178 -0.3620 -0.8647 -0.0911
 6527SOL    HW121022   7.706   7.172   5.248  1.5278  0.3255  0.7070
 6527SOL    HW221023   7.700   7.136   5.101 -1.4904  0.3243  0.7654
 6528SOL     OW21024   7.232   5.751   2.194 -0.4769 -0.2504  0.2938
 6528SOL    HW121025   7.169   5.708   2.251 -0.6257 -0.7419 -0.2286
 6528SOL    HW221026   7.262   5.682   2.135 -0.9553  0.4205 -0.7669
 6529SOL     OW21027   3.374   2.230   6.884  0.3023  0.2780 -0.2262
 6529SOL    HW121028   3.397   2.138   6.899 -1.0712  0.0522  0.6758
 6529SOL    HW221029   3.436   2.280   6.936  0.3636 -0.1903  0.1533
 6530SOL     OW21030   0.936   4.870   6.744 -0.1169  0.8529  0.0212
 6530SOL    HW121031   0.937   4.876   6.648 -1.6142  0.0937 -0.0686
 6530SOL    HW221032   0.857   4.917   6.770 -0.4286 -0.0622  0.7793
 6531SOL     OW21033   7.904   6.263   8.905  0.0978 -0.0746  0.0812
 6531SOL    HW121034   7.907   6.308   8.990  0.1530  0.5359 -0.2404
 6531SOL    HW221035   7.960   6.186   8.917 -1.6134 -1.2407  1.3051
 6532SOL     OW21036   5.929   5.400   3.323  0.7913  0.0836  0.3700
 6532SOL    HW121037   5.910   5.489   3.293  3.3527  1.0491  1.2645
 6532SOL    HW221038   5.986   5.364   3.255  0.5653 -0.5167  0.4930
 6533SOL     OW21039   7.112   4.255   7.753  0.4194  0.0813  0.4778
 6533SOL    HW121040   7.080   4.247   7.663  1.2652  0.1760  0.1590
 6533SOL    HW221041   7.092   4.345   7.778  1.5754  0.5437 -0.1837
 6534SOL     OW21042   0.606   6.843  10.286  0.3953  0.1811 -0.3690
 6534SOL    HW121043   0.597   6.910  10.354  0.8605  0.1144 -0.2366
 6534SOL    HW221044   0.655   6.773  10.329 -1.2826 -0.8634 -0.0578
 6535SOL     OW21045   0.033   1.107   8.076  0.3632 -0.4243 -0.0645
 6535SOL    HW121046   0.051   1.066   7.992  1.2822 -0.3045  0.0663
 6535SOL    HW221047   0.115   1.151   8.100 -0.1623  0.3081  0.4601
 6536SOL     OW21048   0.889   4.326  11.395  0.6087  0.3343 -0.0246
 6536SOL    HW121049   0.856   4.415  11.400 -2.0287 -0.4279 -1.8156
 6536SOL    HW221050   0.858   4.293  11.311  0.8448 -2.4831  0.8726
 6537SOL     OW21051   6.899   0.514  11.510 -0.0173  0.0435 -0.4741
 6537SOL    HW121052   6.916   0.454  11.438  1.6379 -0.9799  0.6870
 6537SOL    HW221053   6.944   0.475  11.585 -0.5217  1.7588  0.8036
 6538SOL     OW21054   5.492   7.262   2.288  0.6467  0.0155 -0.2281
 6538SOL    HW121055   5.446   7.239   2.369  0.9713  0.2381  0.0232
 6538SOL    HW221056   5.422   7.272   2.223  0.1555  1.9828  0.5332
 6539SOL     OW21057   7.033   6.197   1.904 -1.1662  0.3402 -0.5630
 6539SOL    HW121058   6.952   6.211   1.856 -2.7365  2.2872  2.4013
 6539SOL    HW221059   7.007   6.193   1.996  2.0724  1.0057  0.5166
 6540SOL     OW21060   2.644   4.476   4.740  0.7517  0.7498  0.0508
 6540SOL    HW121061   2.568   4.426   4.709  0.4273 -0.1008  2.0768
 6540SOL    HW221062   2.718   4.438   4.694  0.2962 -0.5164  0.3137
 6541SOL     OW21063   1.270   2.778   1.602  0.5645  0.2596 -0.0804
 6541SOL    HW121064   1.189   2.744   1.563  1.6340 -0.5634 -1.7322
 6541SOL    HW221065   1.265   2.873   1.588 -1.0752  0.5105  1.8316
 6542SOL     OW21066   3.240   0.234   2.483  0.2321 -0.2518 -0.3293
 6542SOL    HW121067   3.244   0.142   2.457 -0.2956  0.0066 -1.3795
 6542SOL    HW221068   3.259   0.282   2.403 -0.7033  0.5650 -0.0752
 6543SOL     OW21069   0.387   6.115  10.480 -0.0608  0.4331 -0.1071
 6543SOL    HW121070   0.324   6.188  10.490 -0.8446 -0.2977  0.4872
 6543SOL    HW221071   0.356   6.068  10.403 -2.4587 -1.9671  2.1247
 6544SOL     OW21072   3.185   4.115   8.614 -0.3172 -0.2631 -0.0883
 6544SOL    HW121073   3.192   4.167   8.534 -1.7708 -0.0483 -0.1006
 6544SOL    HW221074   3.276   4.091   8.635  0.1166 -0.0695 -1.6176
 6545SOL     OW21075   7.294   1.448   8.989  0.2451  0.3251 -0.0292
 6545SOL    HW121076   7.219   1.467   8.933  0.5380  0.7447 -0.2766
 6545SOL    HW221077   7.349   1.390   8.937  0.7929  1.1609 -0.4022
 6546SOL     OW21078   1.683   3.335  12.077  0.1928  0.8815 -0.2563
 6546SOL    HW121079   1.672   3.286  12.159 -0.3272  2.6482  0.8129
 6546SOL    HW221080   1.730   3.414  12.104 -0.0110  1.5023 -1.6676
 6547SOL     OW21081   4.911   3.730   6.782 -0.5886  0.1581  0.1228
 6547SOL    HW121082   4.891   3.673   6.856  0.5019  0.9583  1.0628
 6547SOL    HW221083   4.832   3.783   6.771 -0.7003  0.1478  0.8199
 6548SOL     OW21084   1.144   1.202   8.289  0.0696  0.6808 -0.3665
 6548SOL    HW121085   1.139   1.295   8.311 -2.9328  0.5856 -0.2574
 6548SOL    HW221086   1.132   1.199   8.194  0.9697  0.4246 -0.4815
 6549SOL     OW21087   6.436   3.847   5.025  0.3449  0.4617 -0.2368
 6549SOL    HW121088   6.516   3.817   5.068 -0.3560  0.0485  0.8228
 6549SOL    HW221089   6.453   3.938   5.003  1.2117  0.2917 -0.2775
 6550SOL     OW21090   5.516   0.034  11.413  0.4763 -0.4106 -0.7988
 6550SOL    HW121091   5.463  -0.030  11.365  1.7648 -1.8204 -0.4534
 6550SOL    HW221092   5.584   0.061  11.352  0.3479  0.0946 -0.7196
 6551SOL     OW21093   2.618   4.788  12.399  0.9669  0.0469 -0.6129
 6551SOL    HW121094   2.687   4.726  12.376  0.4872 -0.0665 -1.8066
 6551SOL    HW221095   2.662   4.873  12.404  1.3365 -0.1473 -0.5167
 6552SOL     OW21096   1.563   1.775   7.723  0.3842 -0.3738  0.4587
 6552SOL    HW121097   1.518   1.785   7.639 -0.3462  0.7932  0.9741
 6552SOL    HW221098   1.493   1.758   7.786  0.8367 -0.2491  1.0015
 6553SOL     OW21099   4.174   7.850   2.684 -0.0717  0.1798  0.0086
 6553SOL    HW121100   4.253   7.890   2.648  2.4613 -1.4426  3.2040
 6553SOL    HW221101   4.168   7.886   2.773 -2.3469 -0.5722  0.2125
 6554SOL     OW21102   7.808   7.865  11.759  0.4478 -0.7120  0.0963
 6554SOL    HW121103   7.854   7.838  11.838 -2.3950 -1.8278  1.5025
 6554SOL    HW221104   7.729   7.812  11.758  0.0221 -0.2168 -3.1639
 6555SOL     OW21105   3.075   1.921   3.662 -0.3493 -0.1263 -0.2078
 6555SOL    HW121106   3.043   1.862   3.730  0.4701  0.5220  0.7787
 6555SOL    HW221107   3.121   1.990   3.710  1.3845 -0.3327 -1.4650
 6556SOL     OW21108   4.788   2.490   2.235 -0.2390 -0.2369  0.5527
 6556SOL    HW121109   4.729   2.529   2.170  0.8179 -1.8664 -1.5018
 6556SOL    HW221110   4.831   2.565   2.276 -1.3874  0.8589 -0.1678
 6557SOL     OW21111   6.777   3.408   6.063 -0.1204 -0.6008 -0.2589
 6557SOL    HW121112   6.702   3.441   6.113 -0.0320 -1.8674  0.7634
 6557SOL    HW221113   6.750   3.415   5.971 -1.2592 -0.4893  0.0696
 6558SOL     OW21114   4.790   4.883   1.145  0.1798  0.2101 -0.1165
 6558SOL    HW121115   4.770   4.974   1.120 -0.6905 -0.0829 -0.5072
 6558SOL    HW221116   4.821   4.890   1.236 -2.7088  0.6219  0.9570
 6559SOL     OW21117   1.022   0.309   7.962  0.7076  0.7656  0.2229
 6559SOL    HW121118   1.042   0.393   8.004 -0.3552  1.4043 -0.4852
 6559SOL    HW221119   1.011   0.331   7.869  3.1402 -0.6229 -0.5059
 6560SOL     OW21120   7.159   0.762   4.410 -0.0195  0.3718 -0.1417
 6560SOL    HW121121   7.146   0.750   4.504 -1.1376  0.1733 -0.3173
 6560SOL    HW221122   7.182   0.855   4.401  1.3155  0.1273  0.4335
 6561SOL     OW21123   6.652   3.111   3.112  0.4508 -0.1044 -0.0060
 6561SOL    HW121124   6.699   3.184   3.072 -1.0993  0.8070 -0.2739
 6561SOL    HW221125   6.562   3.144   3.122 -0.8941 -2.7206 -2.1766
 6562SOL     OW21126   2.248   6.363  10.501 -0.0769  0.0338  1.0714
 6562SOL    HW121127   2.317   6.407  10.551  0.7304 -1.0133  0.8994
 6562SOL    HW221128   2.292   6.293  10.455 -1.3410 -0.9776  1.3314
 6563SOL     OW21129   2.396   2.975   4.714 -0.0611 -0.3802 -0.4788
 6563SOL    HW121130   2.386   3.012   4.802 -0.5751 -3.6924  1.0239
 6563SOL    HW221131   2.308   2.978   4.677 -0.5834 -1.9731  0.5313
 6564SOL     OW21132   0.638   1.999  10.958 -0.5360 -0.3652 -0.0373
 6564SOL    HW121133   0.681   1.981  11.041 -0.8524 -3.0309 -0.3497
 6564SOL    HW221134   0.684   2.076  10.923  1.1710 -0.6043  1.5208
 6565SOL     OW21135   3.808   1.333   3.783  0.0918  0.7170 -0.2606
 6565SOL    HW121136   3.859   1.408   3.815  1.9981 -0.4795 -0.3214
 6565SOL    HW221137   3.834   1.324   3.691  0.1490 -0.2182 -0.1610
 6566SOL     OW21138   5.528   5.855   1.482  0.3013 -0.0032  0.6862
 6566SOL    HW121139   5.582   5.797   1.535  0.5000 -0.7390 -0.2957
 6566SOL    HW221140   5.567   5.942   1.494  0.3308 -0.1456  1.7393
 6567SOL     OW21141   7.684   4.946   6.213  0.1587 -0.1902 -0.0545
 6567SOL    HW121142   7.719   4.935   6.301  1.0423  2.4725  0.0300
 6567SOL    HW221143   7.761   4.944   6.156 -0.4688 -2.5896 -0.9075
 6568SOL     OW21144   2.360   6.513   5.150  0.2407 -0.8106  0.3480
 6568SOL    HW121145   2.420   6.439   5.136 -0.4141 -1.0972 -1.0844
 6568SOL    HW221146   2.275   6.482   5.118  0.2632  1.0289 -1.7778
 6569SOL     OW21147   6.191   3.421  11.156  0.2996 -0.2971 -0.2974
 6569SOL    HW121148   6.275   3.380  11.177 -0.2963 -0.5670  1.7714
 6569SOL    HW221149   6.204   3.513  11.178  0.2217 -0.2253 -0.5492
 6570SOL     OW21150   5.972   4.000   1.032  0.5674 -0.5826  0.4947
 6570SOL    HW121151   6.054   4.033   0.995  0.8206 -0.3359  1.2564
 6570SOL    HW221152   5.915   3.988   0.956  0.9757  0.1916  0.0502
 6571SOL     OW21153   1.516   3.755   2.433 -0.3716  0.5473 -0.3901
 6571SOL    HW121154   1.431   3.758   2.391 -0.0951  1.3404 -0.9125
 6571SOL    HW221155   1.497   3.747   2.526 -0.9897 -1.5623 -0.6347
 6572SOL     OW21156   2.373   5.096   8.415  0.4150  0.9336 -0.4224
 6572SOL    HW121157   2.284   5.072   8.438  0.9533 -0.6419  0.1529
 6572SOL    HW221158   2.364   5.178   8.366 -1.3951  0.3853 -1.0789
 6573SOL     OW21159   5.426   6.308   8.535 -0.0714  0.0866  0.0252
 6573SOL    HW121160   5.485   6.251   8.585  1.0229  0.7453 -0.4803
 6573SOL    HW221161   5.471   6.324   8.453 -0.5070  1.3981  0.0147
 6574SOL     OW21162   0.354   5.200   5.843  0.5423 -0.5498 -0.5551
 6574SOL    HW121163   0.312   5.132   5.896 -1.6065 -0.3647 -1.9003
 6574SOL    HW221164   0.324   5.282   5.883 -0.7774 -0.4146 -1.7300
 6575SOL     OW21165   1.412   7.608   6.611 -0.3030 -0.2439 -0.4635
 6575SOL    HW121166   1.506   7.609   6.595 -0.2985 -1.4469 -0.6108
 6575SOL    HW221167   1.389   7.515   6.613 -1.5067  0.0321 -0.5436
 6576SOL     OW21168   5.939   3.500  11.282 -0.6292  0.1697  0.3242
 6576SOL    HW121169   5.988   3.483  11.362 -1.2004 -0.4197  0.5596
 6576SOL    HW221170   5.996   3.468  11.212 -0.0045  0.9532  0.4579
 6577SOL     OW21171   1.810   0.511  12.083 -0.1615  0.7337  0.4318
 6577SOL    HW121172   1.724   0.528  12.122 -0.7451  1.3730 -1.0277
 6577SOL    HW221173   1.797   0.431  12.032 -0.8527  2.4042 -2.2562
 6578SOL     OW21174   5.091   4.545   9.038  0.4847  0.0744 -0.2714
 6578SOL    HW121175   5.116   4.634   9.013  1.1068  0.2153  0.7812
 6578SOL    HW221176   5.100   4.544   9.133 -1.7265 -0.4558 -0.0332
 6579SOL     OW21177   5.581   0.697   8.465 -0.5612  0.1784 -0.0339
 6579SOL    HW121178   5.594   0.696   8.370 -0.0462 -0.6415  0.0281
 6579SOL    HW221179   5.667   0.675   8.501 -0.4088  1.8417  0.6818
 6580SOL     OW21180   7.425   2.654   3.177  0.2654 -0.2512  0.3315
 6580SOL    HW121181   7.367   2.714   3.128 -1.3213 -0.3573  1.9810
 6580SOL    HW221182   7.512   2.671   3.142 -0.6114  0.6423 -1.5587
 6581SOL     OW21183   3.201   6.144  11.327  0.1784  0.2167  0.1990
 6581SOL    HW121184   3.167   6.179  11.410 -1.9924 -0.9737 -0.1243
 6581SOL    HW221185   3.153   6.063  11.313  2.4640 -1.0486 -0.9083
 6582SOL     OW21186   7.642   0.801   3.296  0.2439 -0.0971 -0.1065
 6582SOL    HW121187   7.692   0.819   3.216  0.2185  0.5451  0.0157
 6582SOL    HW221188   7.580   0.874   3.302 -0.3126 -0.5756  0.0620
 6583SOL     OW21189   7.472   2.695   1.878 -0.1011 -0.1350  0.1514
 6583SOL    HW121190   7.426   2.769   1.837 -1.4665 -1.1999 -0.2819
 6583SOL    HW221191   7.488   2.724   1.968 -2.1595  0.0625  0.5021
 6584SOL     OW21192   6.693   2.188  11.093  0.2425  0.3878 -0.7033
 6584SOL    HW121193   6.783   2.157  11.106  0.3671 -0.3464 -2.9714
 6584SOL    HW221194   6.703   2.277  11.060  0.2231 -0.1310 -2.1703
 6585SOL     OW21195   7.139   3.744   9.395 -0.0528 -0.0131 -0.1252
 6585SOL    HW121196   7.214   3.795   9.427 -0.7630  0.7873  0.3280
 6585SOL    HW221197   7.069   3.763   9.458 -1.0990  0.5119 -1.4086
 6586SOL     OW21198   3.080   1.749   2.010 -0.0883  0.2933 -0.0305
 6586SOL    HW121199   3.162   1.702   2.026  0.2028 -0.4735 -3.1576
 6586SOL    HW221200   3.019   1.681   1.982 -2.0108  0.8042  2.4943
 6587SOL     OW21201   1.497   0.343   8.764  0.0165  0.0673 -0.6498
 6587SOL    HW121202   1.479   0.431   8.799 -0.4407 -0.3055  0.0751
 6587SOL    HW221203   1.475   0.350   8.671 -0.8481  0.4950 -0.4227
 6588SOL     OW21204   1.338   2.103  12.309  0.5230 -0.0094 -0.7900
 6588SOL    HW121205   1.372   2.148  12.387 -0.2844  0.0181 -0.4435
 6588SOL    HW221206   1.372   2.154  12.235  1.1436  0.0700 -0.4500
 6589SOL     OW21207   2.028   6.711   4.472 -0.3656 -0.2926  0.7052
 6589SOL    HW121208   2.087   6.730   4.545  0.0765  0.2833  0.2156
 6589SOL    HW221209   2.084   6.672   4.405 -0.7218 -0.5961  0.5807
 6590SOL     OW21210   6.385   0.697  11.524  0.0329 -0.6955 -0.0854
 6590SOL    HW121211   6.472   0.697  11.565  0.4537  0.1514 -0.9482
 6590SOL    HW221212   6.402   0.715  11.432 -1.1019  0.0364 -0.1678
 6591SOL     OW21213   0.833   0.692   2.019 -0.4307 -0.9366 -0.8586
 6591SOL    HW121214   0.746   0.656   2.037  0.1086 -2.2122 -0.7263
 6591SOL    HW221215   0.874   0.627   1.962  0.8130 -0.8341 -0.0940
 6592SOL     OW21216   4.597   1.586  10.706 -0.3258  0.2171 -0.3140
 6592SOL    HW121217   4.577   1.597  10.613  0.7745  0.2620 -0.5605
 6592SOL    HW221218   4.673   1.529  10.708  0.4024  1.1677  0.4978
 6593SOL     OW21219   7.391   1.309   7.572  0.3037  0.2454  0.5690
 6593SOL    HW121220   7.408   1.260   7.653 -0.0071 -0.1561  0.3987
 6593SOL    HW221221   7.317   1.262   7.531  0.6567  0.2556 -0.0983
 6594SOL     OW21222   3.418   4.019   3.594 -0.1041 -0.1841 -0.0171
 6594SOL    HW121223   3.371   3.970   3.662 -0.4158  0.4060  0.2014
 6594SOL    HW221224   3.412   3.964   3.516  1.0824 -1.3250  0.6636
 6595SOL     OW21225   6.180   2.160   6.236 -0.1360  0.2183 -0.4044
 6595SOL    HW121226   6.195   2.248   6.268 -0.4130 -0.6186  2.3197
 6595SOL    HW221227   6.123   2.171   6.160 -0.2848  2.3466 -0.0342
 6596SOL     OW21228   0.550   1.078   0.940 -0.1656  0.8024  0.1944
 6596SOL    HW121229   0.568   0.986   0.919  0.1000  0.5716  1.3259
 6596SOL    HW221230   0.572   1.126   0.861  3.0038  0.2707  0.6354
 6597SOL     OW21231   2.772   2.952   9.170  0.2313 -0.2703  0.0504
 6597SOL    HW121232   2.820   2.982   9.093 -0.6381 -0.2044 -0.4894
 6597SOL    HW221233   2.699   3.013   9.178 -1.3929 -1.9878 -0.8803
 6598SOL     OW21234   6.652   6.392   4.535 -0.1935 -0.0883  0.4043
 6598SOL    HW121235   6.662   6.354   4.448 -0.8763  0.7511 -0.0479
 6598SOL    HW221236   6.733   6.367   4.581  0.1847 -0.5119 -0.4658
 6599SOL     OW21237   7.382   2.936   8.160 -0.7805  0.4000  0.4409
 6599SOL    HW121238   7.476   2.950   8.174 -0.4741 -0.4583 -0.6022
 6599SOL    HW221239   7.340   3.010   8.204  0.3272  0.3194  1.7239
 6600SOL     OW21240   3.480   5.833   7.858  0.0505  0.1849 -0.1732
 6600SOL    HW121241   3.496   5.739   7.850  0.6107  0.2615  0.0360
 6600SOL    HW221242   3.483   5.865   7.768 -1.2776 -0.1632 -0.3779
 6601SOL     OW21243   3.846   3.313   4.454  0.0892  0.8343  0.1181
 6601SOL    HW121244   3.859   3.370   4.530  0.4265 -0.8040  1.3552
 6601SOL    HW221245   3.933   3.276   4.437 -0.2817  0.0463 -0.1091
 6602SOL     OW21246   3.629   5.449   9.378 -0.1261  0.1320  0.6370
 6602SOL    HW121247   3.640   5.455   9.473  1.0503  0.8393  0.4816
 6602SOL    HW221248   3.716   5.469   9.343  0.0846 -2.5509 -0.5426
 6603SOL     OW21249   4.893   5.691   8.478  0.7194 -0.4556  0.0132
 6603SOL    HW121250   4.954   5.745   8.427  0.8056 -0.5946 -0.0334
 6603SOL    HW221251   4.949   5.645   8.540  0.9217 -1.9611 -1.2075
 6604SOL     OW21252   1.094   0.578   4.343  0.6985  0.3635  0.3047
 6604SOL    HW121253   1.058   0.650   4.291  1.6751 -0.7257 -2.0050
 6604SOL    HW221254   1.049   0.500   4.311  2.2296 -0.5051  0.1661
 6605SOL     OW21255   7.565   5.552   2.241  0.0293 -0.8826  0.0882
 6605SOL    HW121256   7.609   5.472   2.272 -0.8817 -0.9608  1.2548
 6605SOL    HW221257   7.486   5.520   2.197  0.2972 -0.6741 -0.5450
 6606SOL     OW21258   4.114   2.139   0.605  0.7462 -0.0750  0.5392
 6606SOL    HW121259   4.081   2.052   0.581 -2.3796  1.6728 -2.4594
 6606SOL    HW221260   4.039   2.182   0.646  1.2846  2.0758 -0.6099
 6607SOL     OW21261   1.717   7.049   1.948 -0.3919  0.1334 -0.1647
 6607SOL    HW121262   1.714   6.969   2.001  1.3859  0.8792  1.1768
 6607SOL    HW221263   1.810   7.058   1.925 -0.6188  1.6070 -0.5806
 6608SOL     OW21264   2.479   7.844   9.272  0.1228 -0.0624  0.8287
 6608SOL    HW121265   2.557   7.790   9.289 -0.5200 -0.7892  1.5611
 6608SOL    HW221266   2.513   7.933   9.265  1.1397 -0.4853  0.1575
 6609SOL     OW21267   0.847   7.321  12.029 -0.5885 -0.2320  0.6571
 6609SOL    HW121268   0.922   7.361  12.073 -0.8509  0.2088  0.7148
 6609SOL    HW221269   0.775   7.328  12.092 -1.0038  0.5273  0.1259
 6610SOL     OW21270   4.315   6.459   7.802  0.0095 -0.2081 -0.9355
 6610SOL    HW121271   4.386   6.510   7.763 -0.2014 -0.1241 -1.2056
 6610SOL    HW221272   4.330   6.466   7.896 -0.2127  0.6282 -0.9581
 6611SOL     OW21273   6.879   5.800   6.854  0.1398  0.1070 -0.2932
 6611SOL    HW121274   6.908   5.863   6.789 -1.0833  1.6582  0.6033
 6611SOL    HW221275   6.917   5.717   6.826  1.9753  1.2636 -1.3848
 6612SOL     OW21276   7.320   6.024   8.863  0.2788 -0.5780 -0.1634
 6612SOL    HW121277   7.361   6.110   8.857 -0.1642 -0.4381 -1.5877
 6612SOL    HW221278   7.393   5.963   8.868  0.6205 -0.1909 -0.3591
 6613SOL     OW21279   2.142   1.399   5.362  0.2010 -0.4088 -0.6761
 6613SOL    HW121280   2.189   1.339   5.304  1.0448 -0.7306  0.3167
 6613SOL    HW221281   2.078   1.442   5.305  0.3462 -1.4224 -1.6368
 6614SOL     OW21282   6.565   3.328   2.953 -0.5525  0.1986 -0.2330
 6614SOL    HW121283   6.495   3.302   3.014 -2.1693  0.8769 -1.7018
 6614SOL    HW221284   6.571   3.423   2.963  1.7901 -0.0604  1.4772
 6615SOL     OW21285   4.721   6.933   1.269 -0.3150 -0.1392  0.4727
 6615SOL    HW121286   4.640   6.943   1.318  0.2444  2.6222  0.9815
 6615SOL    HW221287   4.715   6.998   1.199  0.9425 -0.7494 -0.2436
 6616SOL     OW21288   1.653   3.617   8.214  0.2666  0.6997 -0.0523
 6616SOL    HW121289   1.672   3.598   8.306  0.8072  3.9388  0.5986
 6616SOL    HW221290   1.563   3.587   8.201  0.3173 -0.1726  1.3780
 6617SOL     OW21291   5.333   4.393   5.743 -0.0869 -0.4621 -0.3114
 6617SOL    HW121292   5.286   4.393   5.826 -0.2467 -0.7866 -0.4009
 6617SOL    HW221293   5.264   4.382   5.677 -0.2186  1.7956 -0.6422
 6618SOL     OW21294   7.333   6.814   2.206  0.2121  0.3189  0.9866
 6618SOL    HW121295   7.390   6.878   2.249  1.0072 -0.4387  1.0886
 6618SOL    HW221296   7.245   6.840   2.231  0.4884  1.6633  0.6234
 6619SOL     OW21297   3.037   7.332   7.729  0.4706  0.3993 -0.4283
 6619SOL    HW121298   3.013   7.382   7.651 -0.4240  0.2010 -0.2846
 6619SOL    HW221299   3.129   7.354   7.743  0.5201  0.7926 -1.2718
 6620SOL     OW21300   6.921   5.427   7.942 -0.2192  0.5987 -0.0143
 6620SOL    HW121301   6.869   5.397   7.868 -0.6078 -0.8716  0.8040
 6620SOL    HW221302   6.897   5.367   8.013  1.7527  0.6026  0.7042
 6621SOL     OW21303   6.556   7.831   4.890  0.3934 -0.4977 -0.4372
 6621SOL    HW121304   6.631   7.771   4.882  0.5719 -0.4294  0.5329
 6621SOL    HW221305   6.524   7.816   4.979  0.2993  0.6900 -0.2681
 6622SOL     OW21306   6.998   1.391  10.427 -0.2554  0.0068  0.4073
 6622SOL    HW121307   6.994   1.301  10.393  1.2138  0.0616  0.0240
 6622SOL    HW221308   6.971   1.446  10.353 -2.6298 -0.1376  1.0664
 6623SOL     OW21309   4.404   5.216  11.878 -0.0624 -0.3077 -0.0001
 6623SOL    HW121310   4.334   5.276  11.852  0.3701 -0.8444 -2.7204
 6623SOL    HW221311   4.483   5.270  11.877  0.4316 -0.8950 -3.0947
 6624SOL     OW21312   6.925   0.780   2.337 -0.1334 -0.3477 -0.4016
 6624SOL    HW121313   6.855   0.746   2.282 -1.4448 -0.4838  1.2621
 6624SOL    HW221314   6.905   0.873   2.347  0.6993 -0.0899 -0.9929
 6625SOL     OW21315   1.781   2.848   1.992  0.1072  0.0151 -0.0549
 6625SOL    HW121316   1.789   2.753   1.987 -2.4790 -0.3675  1.4341
 6625SOL    HW221317   1.708   2.869   1.933 -1.0242  0.7073  1.5126
 6626SOL     OW21318   4.410   2.916   2.659 -0.2554 -0.2515 -0.4253
 6626SOL    HW121319   4.371   2.993   2.617 -1.8290 -1.0025 -0.3999
 6626SOL    HW221320   4.389   2.926   2.752  0.4692 -0.2020 -0.2531
 6627SOL     OW21321   5.051   6.304   6.578 -0.6048 -0.3504 -0.2602
 6627SOL    HW121322   5.088   6.349   6.654  0.6176  0.7359 -1.4552
 6627SOL    HW221323   5.037   6.214   6.608  0.0515 -0.0070  1.1798
 6628SOL     OW21324   4.129   3.308   7.635 -0.1250 -0.1608  0.4466
 6628SOL    HW121325   4.103   3.226   7.677  1.5810 -1.4046 -0.7707
 6628SOL    HW221326   4.171   3.281   7.553  0.0205  1.9663 -0.2553
 6629SOL     OW21327   5.194   4.736  11.022 -0.5511 -0.1677  0.6330
 6629SOL    HW121328   5.200   4.720  11.116  2.3918 -2.3617  0.2165
 6629SOL    HW221329   5.269   4.790  11.002 -0.8759 -0.1214 -0.5307
 6630SOL     OW21330   1.325   2.395   3.271 -0.2680  0.5020  0.1948
 6630SOL    HW121331   1.363   2.319   3.228 -3.0315 -1.6725  1.3030
 6630SOL    HW221332   1.259   2.427   3.209 -0.3257  0.9478  0.4810
 6631SOL     OW21333   7.252   0.449   3.730  0.0317 -0.2213 -0.3208
 6631SOL    HW121334   7.178   0.466   3.672 -0.6439  0.1083  0.6158
 6631SOL    HW221335   7.217   0.460   3.818  0.8349 -1.4642  0.1938
 6632SOL     OW21336   7.147   0.286   2.182 -0.0563  0.3396 -0.2275
 6632SOL    HW121337   7.217   0.350   2.199  0.0853  0.3513 -0.8288
 6632SOL    HW221338   7.070   0.340   2.164  0.0213  0.3433 -0.5596
 6633SOL     OW21339   5.786   5.119   4.220 -0.1871 -0.5980  0.0662
 6633SOL    HW121340   5.691   5.108   4.216 -0.1217 -2.7377  2.1537
 6633SOL    HW221341   5.811   5.087   4.307  2.3902  0.6279 -0.1158
 6634SOL     OW21342   3.180   1.450   8.831 -0.2644 -0.4158  0.2327
 6634SOL    HW121343   3.213   1.463   8.742  2.0854 -2.1734  0.7487
 6634SOL    HW221344   3.116   1.380   8.824 -1.7418  0.9442 -0.3436
 6635SOL     OW21345   5.451   7.823   6.754  0.2516  0.0622 -0.0718
 6635SOL    HW121346   5.505   7.772   6.695  0.6115  0.1075  0.2191
 6635SOL    HW221347   5.434   7.905   6.707 -0.5890 -0.4348 -0.6709
 6636SOL     OW21348   7.720   3.496   2.786  0.5825  0.0567  0.0859
 6636SOL    HW121349   7.797   3.500   2.844 -0.4306  2.6995  1.4473
 6636SOL    HW221350   7.649   3.467   2.843 -0.3366  2.2531  0.1735
 6637SOL     OW21351   6.064   3.941   9.184  0.1639  0.4824 -0.0400
 6637SOL    HW121352   6.016   3.916   9.263  0.2389 -1.1700 -0.4784
 6637SOL    HW221353   6.018   4.018   9.151 -1.5756 -0.4455  0.1109
 6638SOL     OW21354   6.619   3.857   5.478 -0.0663  0.0663  0.0015
 6638SOL    HW121355   6.664   3.912   5.413 -0.7110  0.2065 -0.3389
 6638SOL    HW221356   6.690   3.818   5.530  0.4304  0.5890 -0.2674
 6639SOL     OW21357   2.670   4.388   3.604 -0.2200  0.0214  0.3216
 6639SOL    HW121358   2.723   4.468   3.595 -0.4167  0.0481 -0.7602
 6639SOL    HW221359   2.701   4.348   3.685  3.6993 -1.5579 -1.6939
 6640SOL     OW21360   4.522   4.405   0.116 -0.0443 -0.6688  0.0192
 6640SOL    HW121361   4.519   4.464   0.041  0.0694 -1.4433 -0.6075
 6640SOL    HW221362   4.614   4.398   0.139  0.0886 -1.6149 -0.7412
 6641SOL     OW21363   0.846   2.353  12.365  0.0288 -0.3584 -0.1274
 6641SOL    HW121364   0.801   2.308  12.436  1.0601 -1.2376 -0.0110
 6641SOL    HW221365   0.935   2.317  12.366  0.7677  1.3797 -0.3104
 6642SOL     OW21366   1.578   6.105  10.164  0.2112  0.1243  0.3385
 6642SOL    HW121367   1.529   6.177  10.206  1.9851  0.7702  1.4310
 6642SOL    HW221368   1.537   6.026  10.198 -1.0474  0.6039  0.0124
 6643SOL     OW21369   6.859   3.212   1.509 -0.5358  0.2455  1.0667
 6643SOL    HW121370   6.784   3.219   1.449 -0.2346  1.8682  0.8289
 6643SOL    HW221371   6.827   3.251   1.591  0.5749  2.8228  0.3846
 6644SOL     OW21372   2.938   3.827   0.331 -0.0724 -0.2500  0.3951
 6644SOL    HW121373   2.956   3.748   0.280 -1.4254  0.3344 -1.0988
 6644SOL    HW221374   2.992   3.819   0.409  1.2312 -1.7480 -0.6078
 6645SOL     OW21375   0.351   0.191   6.738 -0.1679 -0.5104 -0.0301
 6645SOL    HW121376   0.380   0.241   6.815  0.0826 -1.0577  0.2364
 6645SOL    HW221377   0.312   0.112   6.775 -3.4297  0.8194 -0.2702
 6646SOL     OW21378   6.948   1.035   4.101 -0.1722  0.1578  0.2263
 6646SOL    HW121379   7.015   1.032   4.169  0.2152  1.1332 -0.0951
 6646SOL    HW221380   6.867   1.009   4.146  0.5448 -1.9356  0.4122
 6647SOL     OW21381   1.501   7.338   1.574  0.4992  0.1351  0.2044
 6647SOL    HW121382   1.552   7.389   1.637  2.3915 -2.7192  1.1534
 6647SOL    HW221383   1.513   7.384   1.491  2.5709  0.9568  0.8957
 6648SOL     OW21384   5.726   7.014   0.989 -0.0496 -0.0672 -0.4959
 6648SOL    HW121385   5.634   6.990   1.004 -0.6156  2.1080 -0.1368
 6648SOL    HW221386   5.749   7.070   1.063  1.7773 -1.0400 -0.2873
 6649SOL     OW21387   6.609   7.757   1.679 -0.0040 -0.1646 -0.1284
 6649SOL    HW121388   6.521   7.774   1.646  0.2026  1.5196  0.0773
 6649SOL    HW221389   6.667   7.793   1.612  0.4960 -0.2118  0.2727
 6650SOL     OW21390   7.477   3.270   9.151 -0.2519 -0.6390 -0.2589
 6650SOL    HW121391   7.453   3.178   9.165  1.7459 -1.2684 -0.6463
 6650SOL    HW221392   7.468   3.310   9.238  0.6524 -1.6787  0.3472
 6651SOL     OW21393   2.780   5.364   3.888  0.0245  0.5519  0.0025
 6651SOL    HW121394   2.853   5.420   3.861 -0.7451  1.6280  0.0744
 6651SOL    HW221395   2.796   5.281   3.844  1.4952  0.6360  0.3206
 6652SOL     OW21396   0.001   1.939   4.571 -0.5499  0.0570 -0.7783
 6652SOL    HW121397   0.020   1.874   4.503 -0.3363 -0.5345 -0.1568
 6652SOL    HW221398  -0.056   2.003   4.527  0.4297  0.2503 -1.8038
 6653SOL     OW21399   1.070   6.114   8.164 -0.2555  0.3976 -0.3510
 6653SOL    HW121400   1.074   6.033   8.215  1.5190  0.7983  0.2217
 6653SOL    HW221401   1.133   6.172   8.206  0.7537  1.0105 -2.5785
 6654SOL     OW21402   1.455   0.054   3.031 -0.2119  0.1537  0.6894
 6654SOL    HW121403   1.479  -0.012   2.966  0.5760 -0.8306  1.9411
 6654SOL    HW221404   1.500   0.134   3.002  0.7357 -0.4622  0.4377
 6655SOL     OW21405   7.974   6.586  11.081  0.2889  0.2531 -0.3320
 6655SOL    HW121406   8.049   6.600  11.138 -1.0785  1.3087  1.2917
 6655SOL    HW221407   7.971   6.491  11.068  0.2029 -0.1155  2.0273
 6656SOL     OW21408   3.357   6.890   6.426  0.0822 -0.2486 -0.1953
 6656SOL    HW121409   3.378   6.828   6.356  0.1494 -1.1984  0.6388
 6656SOL    HW221410   3.304   6.840   6.488 -1.7711  1.1513 -0.5682
 6657SOL     OW21411   1.094   2.041   0.849  0.1009  0.3514  0.0528
 6657SOL    HW121412   1.118   2.105   0.916  0.6251  0.1222  0.0871
 6657SOL    HW221413   1.156   1.969   0.861 -0.6069 -0.2561  0.1398
 6658SOL     OW21414   2.496   2.671  11.332  0.6585 -0.3805 -0.4957
 6658SOL    HW121415   2.498   2.757  11.373 -1.9302  0.9616 -2.8571
 6658SOL    HW221416   2.587   2.655  11.306  1.3757  1.1217  0.8713
 6659SOL     OW21417   0.678   6.034   8.790 -0.2228 -0.4726 -0.3208
 6659SOL    HW121418   0.686   6.077   8.875 -0.8827  1.1245 -1.0414
 6659SOL    HW221419   0.739   5.960   8.795 -1.9001 -1.8456  2.3955
 6660SOL     OW21420   3.839   4.237   9.309  0.1245  0.2480  0.0000
 6660SOL    HW121421   3.760   4.291   9.303  0.3299  0.5337 -0.1827
 6660SOL    HW221422   3.812   4.160   9.359 -0.5864 -0.2578 -1.1248
 6661SOL     OW21423   6.508   3.787  10.202  0.3929 -0.0023 -0.3336
 6661SOL    HW121424   6.497   3.726  10.275  0.2025  1.2173  0.6993
 6661SOL    HW221425   6.423   3.788  10.158  1.0298 -2.1269 -1.7435
 6662SOL     OW21426   7.704   6.098   2.187  0.2013  0.3774 -0.3018
 6662SOL    HW121427   7.617   6.092   2.148  0.8331 -0.8587 -1.6019
 6662SOL    HW221428   7.745   6.013   2.169  1.3923  0.6346  1.0046
 6663SOL     OW21429   1.949   7.870   3.266  0.0410 -0.2267 -0.0849
 6663SOL    HW121430   1.892   7.833   3.334 -1.9023  0.9104 -1.0082
 6663SOL    HW221431   2.031   7.890   3.312 -0.2180 -2.0177  1.2740
 6664SOL     OW21432   7.770   2.863   1.240 -0.7864  0.2986 -0.5338
 6664SOL    HW121433   7.734   2.923   1.175 -1.0619  0.7777  0.0473
 6664SOL    HW221434   7.698   2.802   1.259 -1.2780  1.1793  0.5352
 6665SOL     OW21435   6.074   5.372   5.744 -0.3300  0.3018  0.2869
 6665SOL    HW121436   6.005   5.313   5.714 -0.2028  0.5745 -0.5705
 6665SOL    HW221437   6.029   5.433   5.802 -0.5809 -0.2498  0.6819
 6666SOL     OW21438   5.462   1.505   9.770 -0.0138 -0.0048  0.0848
 6666SOL    HW121439   5.404   1.429   9.767 -0.1021 -0.1213  2.4537
 6666SOL    HW221440   5.432   1.555   9.846  0.4902  2.0512 -1.0063
 6667SOL     OW21441   7.160   2.219   1.362 -0.4183  0.5531  0.2264
 6667SOL    HW121442   7.095   2.242   1.296 -1.2218  0.7311  1.0592
 6667SOL    HW221443   7.108   2.192   1.438  0.4822 -0.6470  0.4486
 6668SOL     OW21444   0.734   1.437   0.124  0.4333 -0.1485  0.0928
 6668SOL    HW121445   0.734   1.439   0.029  2.9740 -0.4668  0.0171
 6668SOL    HW221446   0.678   1.363   0.147  0.3629 -0.5095 -1.1825
 6669SOL     OW21447   1.070   2.637   5.811 -0.4383 -0.1430 -0.2599
 6669SOL    HW121448   1.135   2.688   5.763 -0.5654 -0.0628 -0.3479
 6669SOL    HW221449   1.115   2.611   5.891 -0.2940 -0.0971 -0.3248
 6670SOL     OW21450   2.984   0.163   4.124 -0.5997 -0.2138 -0.6992
 6670SOL    HW121451   3.029   0.226   4.066 -0.6425 -1.5267 -2.2327
 6670SOL    HW221452   2.899   0.204   4.141 -0.5581  0.2530 -1.5144
 6671SOL     OW21453   1.502   0.987  12.297  0.4723 -0.8527 -0.0667
 6671SOL    HW121454   1.567   0.985  12.368 -0.2563  1.0429  0.7132
 6671SOL    HW221455   1.546   1.032  12.225 -0.2913  1.5425  0.8827
 6672SOL     OW21456   1.929   3.520   9.412 -0.3033 -0.6510  0.0160
 6672SOL    HW121457   1.977   3.454   9.463  1.2151  0.5479  0.2115
 6672SOL    HW221458   1.898   3.583   9.478  0.3525  0.0961 -0.3792
 6673SOL     OW21459   0.709   0.442   6.175 -0.2066 -0.0029 -0.1455
 6673SOL    HW121460   0.723   0.535   6.193 -1.8543  0.4382 -0.9305
 6673SOL    HW221461   0.619   0.427   6.203 -1.0608 -0.5700 -2.9324
 6674SOL     OW21462   2.782   4.692  11.509 -0.0307  0.0880  0.0676
 6674SOL    HW121463   2.825   4.699  11.595 -0.8449 -0.7711  0.5530
 6674SOL    HW221464   2.832   4.624  11.463  0.2798  0.4061 -0.0705
 6675SOL     OW21465   6.898   4.700   0.477 -1.0279  0.2165 -0.0509
 6675SOL    HW121466   6.813   4.660   0.457 -0.1398 -0.9240 -1.7917
 6675SOL    HW221467   6.951   4.685   0.398  0.5404  1.6222  0.6758
 6676SOL     OW21468   1.827   4.489   9.026  0.2283  0.1442 -0.1926
 6676SOL    HW121469   1.844   4.410   8.975 -0.3878 -0.6899  0.8420
 6676SOL    HW221470   1.757   4.534   8.980  0.3550 -0.0797 -0.6033
 6677SOL     OW21471   2.106   7.800   0.207  0.3941  0.1720  0.0839
 6677SOL    HW121472   2.121   7.885   0.165  2.2492 -0.4406 -0.6058
 6677SOL    HW221473   2.021   7.809   0.249  0.1983  2.1151 -0.6069
 6678SOL     OW21474   7.601   2.897   7.934  0.3025 -0.2890 -0.4575
 6678SOL    HW121475   7.610   2.912   8.028  0.1027  1.1952 -0.6559
 6678SOL    HW221476   7.689   2.908   7.899  0.1839  0.3005 -0.5824
 6679SOL     OW21477   6.591   2.000   1.644  0.3726  0.2603 -0.3626
 6679SOL    HW121478   6.642   2.005   1.564  1.1486 -0.6322  0.0576
 6679SOL    HW221479   6.641   2.051   1.708  0.5572 -0.3119 -0.0437
 6680SOL     OW21480   0.790   7.015   4.488 -0.2071 -0.3879  0.3610
 6680SOL    HW121481   0.813   7.105   4.466 -1.3498 -0.0196  0.6240
 6680SOL    HW221482   0.861   6.962   4.450 -0.6306  0.4384 -1.7167
 6681SOL     OW21483   0.407   5.619   8.986 -0.3286 -0.5383  0.5852
 6681SOL    HW121484   0.330   5.597   8.934 -1.3741 -0.9449  2.2143
 6681SOL    HW221485   0.372   5.671   9.059  1.2553  1.1964  0.1780
 6682SOL     OW21486   4.000   7.068   3.853  0.8168 -0.0149  0.2523
 6682SOL    HW121487   4.033   7.037   3.938 -0.7122 -0.4425  0.7205
 6682SOL    HW221488   3.953   7.149   3.873 -1.1614 -1.0815  0.1600
 6683SOL     OW21489   3.457   5.931  10.562 -0.1069  0.2271  0.2605
 6683SOL    HW121490   3.383   5.974  10.519 -0.1207  0.4773  0.5307
 6683SOL    HW221491   3.522   5.921  10.493 -0.1700  0.5254  0.1575
 6684SOL     OW21492   4.526   6.762   5.700  0.5132  0.0796  0.5983
 6684SOL    HW121493   4.478   6.825   5.646  0.6803 -0.6099 -0.3936
 6684SOL    HW221494   4.550   6.811   5.778  0.0740  1.0576  0.1442
 6685SOL     OW21495   6.774   3.659   0.085 -0.9177  0.3661 -0.2352
 6685SOL    HW121496   6.791   3.602   0.160 -0.5291 -0.1796 -0.7278
 6685SOL    HW221497   6.684   3.689   0.097 -1.0854 -0.2574  0.0898
 6686SOL     OW21498   2.170   6.816   5.967  0.3100  0.2988  0.1886
 6686SOL    HW121499   2.214   6.851   5.890  1.4019 -2.5996 -0.6437
 6686SOL    HW221500   2.077   6.821   5.947  0.5103  1.1914 -0.5454
 6687SOL     OW21501   6.019   4.482   8.350  0.3179 -0.1921 -0.2148
 6687SOL    HW121502   5.967   4.500   8.272  1.9715 -0.2860 -1.3850
 6687SOL    HW221503   6.042   4.390   8.343  1.9963  0.2170 -0.6199
 6688SOL     OW21504   7.410   2.009   6.090  0.2370 -0.2741  0.2520
 6688SOL    HW121505   7.428   2.017   6.184 -2.3791 -1.0133  0.9018
 6688SOL    HW221506   7.385   2.097   6.063  0.3399 -0.1921  0.4213
 6689SOL     OW21507   0.116   1.725   3.806 -0.1719  0.1673 -0.4469
 6689SOL    HW121508   0.063   1.788   3.854  0.8001  0.7888 -0.1573
 6689SOL    HW221509   0.174   1.779   3.752  0.0492 -0.4925 -0.8841
 6690SOL     OW21510   3.922   3.667   1.716 -0.0066  0.0576 -0.2571
 6690SOL    HW121511   3.949   3.676   1.625  1.0170 -1.5882 -0.1596
 6690SOL    HW221512   3.977   3.729   1.764 -0.1621  0.5292 -0.6790
 6691SOL     OW21513   0.264   0.770   4.121 -0.3077  0.7920 -0.6781
 6691SOL    HW121514   0.358   0.763   4.103 -0.5489 -0.3138 -1.6714
 6691SOL    HW221515   0.254   0.735   4.210  0.1974  0.7848 -0.6195
 6692SOL     OW21516   2.208   5.420   3.217  0.1598  0.3204 -0.3862
 6692SOL    HW121517   2.160   5.500   3.194  1.0214  1.1646  0.6427
 6692SOL    HW221518   2.300   5.446   3.216  0.4847 -0.7955 -0.5124
 6693SOL     OW21519   1.777   7.880   3.068  0.1925 -0.3037  0.3985
 6693SOL    HW121520   1.751   7.788   3.069  0.6249 -0.4283  0.3787
 6693SOL    HW221521   1.845   7.886   3.135  0.6937 -0.1607 -0.1140
 6694SOL     OW21522   6.707   7.567   4.891  0.3257  0.4218  0.4182
 6694SOL    HW121523   6.701   7.558   4.796  0.3883  0.7462  0.3823
 6694SOL    HW221524   6.795   7.537   4.912 -0.3110 -1.4211  0.5927
 6695SOL     OW21525   0.138   7.398   5.110  0.7161  0.0937  0.6875
 6695SOL    HW121526   0.053   7.422   5.148  0.8669  0.8980  0.5441
 6695SOL    HW221527   0.144   7.451   5.030  0.3634 -1.6277 -0.5271
 6696SOL     OW21528   5.557   2.525   1.253 -0.1633 -0.4424 -0.0824
 6696SOL    HW121529   5.480   2.494   1.301 -0.0960 -0.0831  0.2680
 6696SOL    HW221530   5.574   2.457   1.188 -0.3474 -0.8762  0.3119
 6697SOL     OW21531   3.648   1.583  11.343 -0.1049  0.0807  0.6449
 6697SOL    HW121532   3.687   1.501  11.372  1.1037  0.4738  0.1727
 6697SOL    HW221533   3.573   1.556  11.289 -0.8550 -0.6718  2.0001
 6698SOL     OW21534   5.571   6.735   4.857 -0.1710  0.0785 -0.3592
 6698SOL    HW121535   5.612   6.810   4.813 -1.1843 -0.1902 -1.8142
 6698SOL    HW221536   5.479   6.759   4.864 -0.0387  0.1617  1.7896
 6699SOL     OW21537   3.252   6.536   8.803 -0.0453  0.0214  0.7157
 6699SOL    HW121538   3.241   6.612   8.747  0.0401 -1.0016 -0.7261
 6699SOL    HW221539   3.162   6.511   8.827 -0.0555  0.8099  1.5542
 6700SOL     OW21540   0.525   6.305   1.902  0.1190 -0.2499  0.5885
 6700SOL    HW121541   0.495   6.217   1.924  0.6420 -0.5272  0.2265
 6700SOL    HW221542   0.466   6.333   1.832  0.2342 -0.5067  0.3817
 6701SOL     OW21543   5.500   5.969   3.925 -0.0700  0.1281 -0.6074
 6701SOL    HW121544   5.475   5.880   3.897 -1.6985  0.1240  0.6580
 6701SOL    HW221545   5.434   5.992   3.991  0.7990  1.9765 -0.3255
 6702SOL     OW21546   5.287   0.872  10.875  0.7881  0.3152  0.0463
 6702SOL    HW121547   5.288   0.833  10.788 -1.4017 -0.2014  0.1984
 6702SOL    HW221548   5.201   0.914  10.882  1.4116  1.4721  1.4960
 6703SOL     OW21549   7.271   3.221   4.294 -0.0155 -0.1374 -0.2818
 6703SOL    HW121550   7.364   3.207   4.312  0.3138  2.6727  0.6787
 6703SOL    HW221551   7.269   3.294   4.232 -1.5741  1.4134  1.4623
 6704SOL     OW21552   4.536   3.841  11.478  0.1299  0.4054 -0.3980
 6704SOL    HW121553   4.500   3.859  11.391  0.3076  2.7679 -0.0550
 6704SOL    HW221554   4.575   3.924  11.505  0.5412 -0.4227  1.7354
 6705SOL     OW21555   3.747   2.400  12.413 -0.5693 -0.6535 -0.3289
 6705SOL    HW121556   3.818   2.381  12.473 -1.4368  1.9126  1.7292
 6705SOL    HW221557   3.702   2.317  12.400  0.4864 -1.5485  1.4780
 6706SOL     OW21558   4.414   4.192  10.929 -0.3218  0.6869 -0.3215
 6706SOL    HW121559   4.479   4.146  10.982 -0.9460 -0.5829 -0.5946
 6706SOL    HW221560   4.341   4.208  10.988 -1.0893 -0.8833 -0.7624
 6707SOL     OW21561   0.880   4.866   5.384  0.3223 -0.5559 -0.3928
 6707SOL    HW121562   0.960   4.817   5.403 -0.1389 -1.0587  0.2798
 6707SOL    HW221563   0.818   4.801   5.352  0.6044  0.0495 -2.3094
 6708SOL     OW21564   6.344   6.095   4.578  0.1495  0.5572 -0.4941
 6708SOL    HW121565   6.322   6.019   4.525  1.6236  0.1818 -0.6023
 6708SOL    HW221566   6.277   6.160   4.556  0.3621  0.1895 -2.3562
 6709SOL     OW21567   7.015   6.231   3.467 -0.0242  0.2889  0.1115
 6709SOL    HW121568   7.008   6.271   3.380 -0.2360 -0.5240 -0.2591
 6709SOL    HW221569   7.044   6.141   3.449 -0.1931  0.0768  0.8765
 6710SOL     OW21570   0.785   1.806  10.035 -0.0712  0.4234 -0.2677
 6710SOL    HW121571   0.770   1.720  10.075  1.0716 -0.1428 -0.9972
 6710SOL    HW221572   0.827   1.786   9.951  1.0356  1.7267 -0.0522
 6711SOL     OW21573   3.051   1.491   3.321 -0.0445  0.0911 -0.2714
 6711SOL    HW121574   3.103   1.456   3.393  1.7740  3.4293  0.2302
 6711SOL    HW221575   3.101   1.471   3.243  0.4516  0.6124 -0.0932
 6712SOL     OW21576   6.457   0.755  11.249  0.5272 -0.9644 -0.3620
 6712SOL    HW121577   6.472   0.840  11.209  1.1815  0.2495  2.2522
 6712SOL    HW221578   6.545   0.722  11.269  0.3832  0.4520  3.6888
 6713SOL     OW21579   1.610   0.024   0.922  0.1708 -0.0931  0.2326
 6713SOL    HW121580   1.682  -0.037   0.904  1.6897  1.6735  0.0838
 6713SOL    HW221581   1.556   0.021   0.842  1.1788  0.0277 -0.4649
 6714SOL     OW21582   2.043   6.523   9.324  0.2484 -0.0078  0.1922
 6714SOL    HW121583   1.955   6.486   9.323 -0.6246  1.9449 -0.1913
 6714SOL    HW221584   2.062   6.543   9.232  0.9647 -0.0946  0.3103
 6715SOL     OW21585   2.949   5.386   1.196 -0.1298  0.1339 -0.0772
 6715SOL    HW121586   3.020   5.351   1.142 -0.1586  2.9471 -2.1358
 6715SOL    HW221587   2.986   5.465   1.235 -0.3222 -1.4213  3.7022
 6716SOL     OW21588   3.358   4.201  12.261 -0.2374 -0.2494 -0.6594
 6716SOL    HW121589   3.431   4.150  12.227 -1.1217 -1.1808 -1.2104
 6716SOL    HW221590   3.327   4.252  12.186  1.8445  2.6889  0.3041
 6717SOL     OW21591   0.416   7.305   9.373  0.7634  0.3440 -0.1091
 6717SOL    HW121592   0.436   7.390   9.412  2.2561  0.5443 -1.2244
 6717SOL    HW221593   0.321   7.305   9.363  0.3186  0.4123  3.1088
 6718SOL     OW21594   0.265   3.040   3.426 -0.1955  0.0795  0.1232
 6718SOL    HW121595   0.295   3.014   3.339  1.1909  0.8454  0.3465
 6718SOL    HW221596   0.169   3.044   3.418 -0.1007 -0.0269 -1.3155
 6719SOL     OW21597   4.355   2.663   4.651 -0.4361 -0.6252  0.1328
 6719SOL    HW121598   4.329   2.573   4.631  0.7265 -1.1157  0.7734
 6719SOL    HW221599   4.326   2.714   4.575 -1.3548 -1.4845 -0.1082
 6720SOL     OW21600   0.874   1.345   9.016  0.0996  0.0239  0.1836
 6720SOL    HW121601   0.825   1.427   9.026 -0.2189  0.2752 -2.7435
 6720SOL    HW221602   0.955   1.370   8.973 -1.1701 -1.4079 -3.3693
 6721SOL     OW21603   2.698   4.039   7.374 -0.3175 -0.6654  0.3745
 6721SOL    HW121604   2.633   4.104   7.399 -0.6396 -0.1787 -1.6046
 6721SOL    HW221605   2.718   3.993   7.456 -1.7966  0.3681  1.3692
 6722SOL     OW21606   5.966   6.460   9.685 -0.4766  0.0300  0.3539
 6722SOL    HW121607   6.050   6.481   9.646  0.2608  0.5763  2.1314
 6722SOL    HW221608   5.969   6.365   9.699  0.3247  0.1893  1.3990
 6723SOL     OW21609   3.073   5.508  11.694  0.2301  0.2437  0.1909
 6723SOL    HW121610   2.981   5.495  11.716  0.0869 -1.0126 -0.9632
 6723SOL    HW221611   3.071   5.550  11.607  0.7693  3.3163  1.5284
 6724SOL     OW21612   3.699   7.925   1.917 -0.1320  0.3766 -0.1072
 6724SOL    HW121613   3.779   7.974   1.902  0.3775 -0.0505  1.1087
 6724SOL    HW221614   3.698   7.859   1.847  0.4689  0.5253 -0.2604
 6725SOL     OW21615   3.979   4.445   2.624  0.6520 -0.1107  0.1354
 6725SOL    HW121616   4.049   4.511   2.625  0.5678  0.0015  1.8873
 6725SOL    HW221617   4.022   4.363   2.649  0.4084 -0.3092 -0.0929
 6726SOL     OW21618   4.141   3.257   1.303  0.1702  0.1330  0.6246
 6726SOL    HW121619   4.198   3.255   1.226 -0.7541 -1.1564 -0.0778
 6726SOL    HW221620   4.062   3.301   1.273  0.4135  1.0866  1.3280
 6727SOL     OW21621   2.212   7.501   6.544 -0.3234  0.1424 -0.4638
 6727SOL    HW121622   2.212   7.422   6.598  0.6229  0.3762 -0.0949
 6727SOL    HW221623   2.288   7.491   6.487 -0.7851  0.3242 -1.1156
 6728SOL     OW21624   7.679   6.344  11.399 -0.2388  0.2312  0.6690
 6728SOL    HW121625   7.603   6.332  11.343  0.3745 -0.4252 -0.0486
 6728SOL    HW221626   7.647   6.396  11.473 -0.9742  1.4941 -0.4868
 6729SOL     OW21627   4.255   2.460   0.692 -0.1630  0.2216 -0.1708
 6729SOL    HW121628   4.202   2.492   0.765  0.4333  0.4167  0.1826
 6729SOL    HW221629   4.335   2.512   0.696  0.2303 -0.3547 -0.4461
 6730SOL     OW21630   4.001   6.565   2.724  0.0619 -0.2357  0.5842
 6730SOL    HW121631   3.954   6.580   2.643 -1.6650  1.2941  1.7826
 6730SOL    HW221632   4.094   6.565   2.699 -0.4583 -0.8682 -1.4840
 6731SOL     OW21633   3.461   1.274   8.863  0.2378  0.1635 -0.7000
 6731SOL    HW121634   3.512   1.321   8.929 -0.8764  0.2306  0.1565
 6731SOL    HW221635   3.418   1.203   8.912  0.5929 -0.7325 -1.6569
 6732SOL     OW21636   5.228   5.801   9.444  0.4586  0.7134  0.3387
 6732SOL    HW121637   5.311   5.756   9.458 -0.5505 -1.5676 -0.5051
 6732SOL    HW221638   5.163   5.743   9.483 -0.9421  1.3474 -0.9739
 6733SOL     OW21639   6.593   0.660  10.989  0.2897  0.1172  0.1142
 6733SOL    HW121640   6.654   0.710  10.934 -0.7259  0.8335 -0.3770
 6733SOL    HW221641   6.647   0.591  11.027  1.4911  0.9358 -0.0503
 6734SOL     OW21642   1.907   5.567   0.417 -0.0165 -0.5575 -0.2662
 6734SOL    HW121643   1.876   5.632   0.353 -0.2164  2.1833  2.3841
 6734SOL    HW221644   1.998   5.590   0.433 -0.4225 -0.0769  1.5912
 6735SOL     OW21645   5.445   5.618  10.005 -0.4893  0.0613  0.5455
 6735SOL    HW121646   5.424   5.669  10.084 -0.1389  0.1168  0.6020
 6735SOL    HW221647   5.384   5.544  10.008 -1.0076  0.4773  0.4599
 6736SOL     OW21648   5.662   7.931   4.118  0.0607  0.7628  0.7085
 6736SOL    HW121649   5.702   7.848   4.143  0.1268  0.2449 -0.9642
 6736SOL    HW221650   5.570   7.910   4.102  0.2126  0.8559 -0.3437
 6737SOL     OW21651   1.624   7.885   5.420 -0.1913 -0.4604 -0.3327
 6737SOL    HW121652   1.574   7.963   5.393 -1.8309 -1.2870  0.2060
 6737SOL    HW221653   1.628   7.892   5.515 -0.4300 -1.0842 -0.2770
 6738SOL     OW21654   3.337   0.033  10.074  0.2050  0.6186 -0.0522
 6738SOL    HW121655   3.355   0.127  10.077 -0.1491  0.8387 -2.4219
 6738SOL    HW221656   3.423  -0.009  10.077  0.5085  1.1440 -1.0267
 6739SOL     OW21657   5.183   6.067  10.274 -0.4074  0.0167  0.2241
 6739SOL    HW121658   5.194   6.059  10.369  0.5799  2.6867  0.4146
 6739SOL    HW221659   5.112   6.130  10.263  1.0622  1.6141 -0.7108
 6740SOL     OW21660   4.931   2.989   5.380 -0.7517  0.0709  0.3317
 6740SOL    HW121661   4.850   3.037   5.365 -0.7088  0.3547  0.9377
 6740SOL    HW221662   4.977   3.041   5.446  0.5924  0.7075 -1.0344
 6741SOL     OW21663   0.922   5.309  11.203 -0.1314  0.4088 -0.0787
 6741SOL    HW121664   0.887   5.315  11.114 -1.1173 -1.2725  0.1368
 6741SOL    HW221665   0.932   5.400  11.232  1.7463  1.0420 -2.4390
 6742SOL     OW21666   5.514   7.881   9.040 -0.0628  0.3995 -1.0077
 6742SOL    HW121667   5.581   7.828   8.998  0.1834  1.2449 -1.7063
 6742SOL    HW221668   5.431   7.840   9.016  0.1477 -2.8641  2.7647
 6743SOL     OW21669   4.511   1.123   3.575 -0.2315  0.3845 -0.0292
 6743SOL    HW121670   4.580   1.174   3.533  1.1479 -0.3943  1.2096
 6743SOL    HW221671   4.537   1.032   3.561 -1.6528  0.0275 -0.5435
 6744SOL     OW21672   6.481   2.426   1.182 -0.4844  0.1762  0.1340
 6744SOL    HW121673   6.521   2.461   1.102 -1.4134  0.1152 -0.3743
 6744SOL    HW221674   6.501   2.332   1.179  0.2631  0.3175  0.4520
 6745SOL     OW21675   5.241   4.500   4.973  0.3369 -0.0355  0.0649
 6745SOL    HW121676   5.332   4.518   4.951 -0.4161  2.4164 -1.4421
 6745SOL    HW221677   5.230   4.537   5.061  0.8820 -0.7229  0.4269
 6746SOL     OW21678   4.544   1.719   1.355  0.7654  0.1618 -0.4358
 6746SOL    HW121679   4.556   1.796   1.301  0.2259  0.1328 -0.5964
 6746SOL    HW221680   4.451   1.699   1.350  0.4520  0.8741  1.4542
 6747SOL     OW21681   4.920   5.524  11.826  0.3880 -0.0437 -0.1605
 6747SOL    HW121682   4.866   5.520  11.905 -2.2551 -0.8507 -1.8808
 6747SOL    HW221683   5.008   5.545  11.858 -0.6167 -0.0838  2.9372
 6748SOL     OW21684   1.164   2.090   2.503  0.0886  0.1080  0.3195
 6748SOL    HW121685   1.113   2.092   2.422 -2.5168 -0.6929  1.8106
 6748SOL    HW221686   1.177   2.182   2.525 -0.1294  0.3329 -0.4419
 6749SOL     OW21687   3.685   0.106   0.392 -0.2780 -0.1287  0.2546
 6749SOL    HW121688   3.671   0.183   0.447 -1.9749 -0.7700  0.7783
 6749SOL    HW221689   3.650   0.130   0.306 -2.1804 -0.7607  0.8045
 6750SOL     OW21690   3.492   2.907   8.127 -0.1929  0.1605  0.2957
 6750SOL    HW121691   3.465   2.851   8.200 -2.1314 -1.2749 -1.4052
 6750SOL    HW221692   3.431   2.981   8.129 -0.0738  0.2610  0.2733
 6751SOL     OW21693   1.840   6.662   9.002 -0.9235  1.5049  0.1177
 6751SOL    HW121694   1.818   6.704   9.086  1.8706  0.7405  1.3308
 6751SOL    HW221695   1.858   6.735   8.943  0.6435  2.0831  1.2612
 6752SOL     OW21696   4.660   3.786   8.669 -0.5052  0.5086  0.2196
 6752SOL    HW121697   4.619   3.702   8.689 -0.7506  0.5560 -0.0633
 6752SOL    HW221698   4.592   3.835   8.621 -0.3019  0.7943  0.2181
 6753SOL     OW21699   7.694   0.267   9.118 -0.0193  0.0500  0.0193
 6753SOL    HW121700   7.720   0.246   9.028  0.7869 -0.7917  0.4397
 6753SOL    HW221701   7.740   0.203   9.172  0.5119  1.3552  1.1483
 6754SOL     OW21702   7.326   2.667   0.881  0.3809 -0.1718 -0.0667
 6754SOL    HW121703   7.300   2.719   0.805 -2.7832  0.6227  1.3889
 6754SOL    HW221704   7.370   2.730   0.939 -0.1860  0.0536  0.1317
 6755SOL     OW21705   4.907   7.072   7.863  0.2861  0.0300 -0.0944
 6755SOL    HW121706   4.965   7.066   7.939 -2.0141 -1.5141  1.6974
 6755SOL    HW221707   4.894   7.165   7.850  0.7867  0.3435  1.3988
 6756SOL     OW21708   6.747   7.242   4.089  0.5179  0.2982  0.0779
 6756SOL    HW121709   6.669   7.198   4.057  1.0575 -0.0233 -0.8448
 6756SOL    HW221710   6.715   7.307   4.151 -0.2789 -1.4860  1.5977
 6757SOL     OW21711   6.798   4.965   5.101 -0.5678 -0.3842 -0.3027
 6757SOL    HW121712   6.855   5.029   5.144 -2.6482  0.9121  0.6575
 6757SOL    HW221713   6.739   4.935   5.170 -2.0317 -0.5293 -1.5579
 6758SOL     OW21714   5.544   0.931   1.456 -0.1500  0.4305  0.4747
 6758SOL    HW121715   5.508   0.859   1.509 -1.0260  0.7586  0.3530
 6758SOL    HW221716   5.598   0.888   1.390  2.0250  0.0768  2.3763
 6759SOL     OW21717   1.573   5.248   2.105  0.2485 -0.0932 -0.2492
 6759SOL    HW121718   1.572   5.167   2.156  0.5355 -1.6798 -2.6025
 6759SOL    HW221719   1.640   5.234   2.039 -0.5624  1.5510 -1.5032
 6760SOL     OW21720   2.112   3.161   2.328  0.1242 -0.2037 -0.0745
 6760SOL    HW121721   2.076   3.197   2.409 -0.8579 -2.0754  0.3864
 6760SOL    HW221722   2.045   3.177   2.262 -0.5630 -1.5485  0.2506
 6761SOL     OW21723   0.264   4.467   9.528 -0.6224  0.4012 -0.3157
 6761SOL    HW121724   0.338   4.518   9.564  0.3387 -0.3177 -1.2125
 6761SOL    HW221725   0.237   4.410   9.600  1.4344 -1.1847 -0.6969
 6762SOL     OW21726   7.784   7.308   2.399  0.0311  0.0281  0.1776
 6762SOL    HW121727   7.852   7.302   2.466 -1.0285  1.9250  1.5441
 6762SOL    HW221728   7.826   7.279   2.319  2.1001  0.0482  1.1975
 6763SOL     OW21729   7.228   6.753   1.703  0.8604 -0.5570  0.6388
 6763SOL    HW121730   7.206   6.846   1.694 -0.6392 -1.0561 -1.9679
 6763SOL    HW221731   7.254   6.743   1.794  1.1789  2.4352  0.9709
 6764SOL     OW21732   1.397   3.185   2.499  0.0749 -0.4480 -0.9196
 6764SOL    HW121733   1.372   3.256   2.440 -0.8912  0.4825  0.5469
 6764SOL    HW221734   1.316   3.162   2.544  0.5638 -1.8930 -0.7370
 6765SOL     OW21735   4.989   5.764   4.601 -0.6285  0.4460  0.2861
 6765SOL    HW121736   5.077   5.776   4.636 -0.7279  0.8479  0.4033
 6765SOL    HW221737   4.939   5.725   4.673 -0.9256  1.6036  0.7328
 6766SOL     OW21738   3.889   1.821   6.275  0.4972  0.1005  0.1559
 6766SOL    HW121739   3.921   1.841   6.363 -0.0614  0.1704  0.3460
 6766SOL    HW221740   3.881   1.906   6.232  0.5855  0.0809  0.0992
 6767SOL     OW21741   6.377   5.091   6.982  0.1085  0.7030  0.6172
 6767SOL    HW121742   6.381   5.052   6.895 -2.2211  0.4931  0.5642
 6767SOL    HW221743   6.416   5.178   6.971  1.4789  0.0221 -0.1918
 6768SOL     OW21744   7.467   6.593   1.314 -0.2133 -0.2494  0.1989
 6768SOL    HW121745   7.505   6.538   1.246 -0.6365 -0.7243  0.3317
 6768SOL    HW221746   7.530   6.663   1.327  0.2648 -0.6177 -0.0924
 6769SOL     OW21747   0.358   4.499   3.596 -0.4322 -0.2858  0.3635
 6769SOL    HW121748   0.337   4.551   3.518  0.5813  0.7028  0.7215
 6769SOL    HW221749   0.273   4.482   3.637 -0.8150  0.9269  0.1230
 6770SOL     OW21750   1.690   3.193   8.240 -0.5438 -0.2331 -0.0506
 6770SOL    HW121751   1.711   3.249   8.315  1.7193 -0.9566 -0.0729
 6770SOL    HW221752   1.736   3.232   8.166 -2.0302 -0.0385 -0.9150
 6771SOL     OW21753   6.384   4.481  11.649 -0.4470  0.0659 -0.0370
 6771SOL    HW121754   6.315   4.493  11.583  0.2451  1.4685 -0.5321
 6771SOL    HW221755   6.448   4.423  11.606 -1.0021 -0.7440  0.2018
 6772SOL     OW21756   1.195   2.008   6.349 -0.4043 -0.2448 -0.5556
 6772SOL    HW121757   1.183   2.099   6.321  1.1431 -0.2764 -1.4347
 6772SOL    HW221758   1.153   2.003   6.435 -0.8861  1.1801 -0.6858
 6773SOL     OW21759   6.721   7.455   0.333  0.5382  0.4665  0.4309
 6773SOL    HW121760   6.661   7.416   0.397  1.8303 -0.3557  1.1827
 6773SOL    HW221761   6.678   7.536   0.306 -1.8388 -0.9872 -0.5128
 6774SOL     OW21762   4.832   4.946   3.257  0.0683  0.2385 -0.1720
 6774SOL    HW121763   4.863   4.999   3.331 -0.2244  2.0760 -1.2925
 6774SOL    HW221764   4.812   4.861   3.295 -0.6665  1.2968  1.9936
 6775SOL     OW21765   3.877   3.116   7.674  0.1106 -0.5136 -0.3522
 6775SOL    HW121766   3.796   3.158   7.702 -0.0366 -0.4919 -0.8181
 6775SOL    HW221767   3.941   3.141   7.741 -0.6990 -2.1183  1.1209
 6776SOL     OW21768   7.590   3.164   6.541 -0.3182 -0.0598  0.2357
 6776SOL    HW121769   7.571   3.240   6.486 -0.5364 -1.2606 -1.4080
 6776SOL    HW221770   7.671   3.128   6.506 -2.0568 -2.6760 -1.4752
 6777SOL     OW21771   5.663   0.013   7.226 -0.3981  0.0540  0.1379
 6777SOL    HW121772   5.639  -0.043   7.152 -0.7066 -0.7295  0.8228
 6777SOL    HW221773   5.585   0.065   7.243 -0.0675  0.8215 -0.5862
 6778SOL     OW21774   3.999   1.920  12.135  0.2250  0.2930  0.2915
 6778SOL    HW121775   3.933   1.874  12.186 -0.6625  0.2913 -0.8194
 6778SOL    HW221776   3.974   2.012  12.141  0.6596  0.3961  0.6059
 6779SOL     OW21777   3.186   2.658   3.596 -0.0373  0.0465 -0.4398
 6779SOL    HW121778   3.187   2.615   3.681 -0.4109  2.2581  0.7611
 6779SOL    HW221779   3.271   2.700   3.589  0.6198 -1.4183 -1.9353
 6780SOL     OW21780   6.607   3.320   7.964 -0.3049  0.1321  0.1451
 6780SOL    HW121781   6.611   3.358   7.876 -1.0276  0.5337  0.2703
 6780SOL    HW221782   6.521   3.347   7.997  0.0600  0.1925  1.0701
 6781SOL     OW21783   1.974   5.985   3.952  0.3451  0.0905 -0.3865
 6781SOL    HW121784   1.999   5.914   3.893  0.1314 -0.0873 -0.2674
 6781SOL    HW221785   1.925   6.046   3.897  0.2588 -0.0101 -0.4233
 6782SOL     OW21786   3.076   7.268   0.142  0.1811  0.2793  0.9269
 6782SOL    HW121787   3.039   7.295   0.058 -1.6538  1.6874  2.1075
 6782SOL    HW221788   3.040   7.180   0.156 -0.4914  0.5226  0.7803
 6783SOL     OW21789   3.672   7.377   3.331  0.0984  0.1682 -0.1552
 6783SOL    HW121790   3.764   7.390   3.356 -0.1302 -0.5722  1.1858
 6783SOL    HW221791   3.634   7.465   3.336  0.4004  0.2600  0.7698
 6784SOL     OW21792   7.309   2.793   6.687  0.0895  0.3673  0.6325
 6784SOL    HW121793   7.346   2.841   6.612  0.1195  1.4285  1.3089
 6784SOL    HW221794   7.321   2.852   6.761 -1.8764  0.2405  1.1048
 6785SOL     OW21795   2.832   5.549   9.562  0.1854 -0.5618 -0.2972
 6785SOL    HW121796   2.845   5.619   9.626 -2.8835 -1.0985  1.1180
 6785SOL    HW221797   2.845   5.591   9.477  1.3489  0.9538  0.5939
 6786SOL     OW21798   5.247   1.226   1.168 -0.0176 -0.2791  0.1805
 6786SOL    HW121799   5.282   1.145   1.206  1.9699  0.2752 -0.3605
 6786SOL    HW221800   5.254   1.212   1.073  0.2404  0.4717  0.0856
 6787SOL     OW21801   0.507   2.377   1.835  0.0644 -0.2823  0.3479
 6787SOL    HW121802   0.495   2.337   1.921 -0.9443 -0.3667  0.1723
 6787SOL    HW221803   0.419   2.383   1.798  0.0624  2.6564  0.6026
 6788SOL     OW21804   1.905   1.813   8.690  0.5909 -0.3065 -0.0046
 6788SOL    HW121805   1.965   1.873   8.646 -1.5003  1.1536 -1.0059
 6788SOL    HW221806   1.941   1.803   8.778  2.5483  0.0731 -0.7007
 6789SOL     OW21807   1.955   1.059   4.118 -0.5539  0.1978 -0.2604
 6789SOL    HW121808   1.864   1.075   4.142 -0.0285  1.0873  1.3113
 6789SOL    HW221809   1.975   0.973   4.156 -0.5777  0.2575 -0.1118
 6790SOL     OW21810   6.569   0.015   1.362 -0.1437 -0.2259 -0.0835
 6790SOL    HW121811   6.528   0.085   1.312  0.4382  0.8604  0.9182
 6790SOL    HW221812   6.612   0.059   1.435  1.7027 -1.4355 -0.3624
 6791SOL     OW21813   6.150   0.193   9.602  0.7632 -0.3190  0.1271
 6791SOL    HW121814   6.154   0.281   9.639  2.1580 -0.4582  0.3638
 6791SOL    HW221815   6.216   0.143   9.651  0.5633 -1.2817 -0.5461
 6792SOL     OW21816   0.129   3.830  11.349 -0.2232 -0.0542 -0.1260
 6792SOL    HW121817   0.105   3.780  11.428 -0.4576  1.0167  0.5034
 6792SOL    HW221818   0.224   3.839  11.354 -0.3115  0.6545  0.4491
 6793SOL     OW21819   7.371   7.409   8.432  0.3768  0.2512 -0.8200
 6793SOL    HW121820   7.304   7.430   8.497 -0.4958  0.1236 -1.6572
 6793SOL    HW221821   7.395   7.494   8.395  0.7181  0.3002 -0.4967
 6794SOL     OW21822   0.126   4.713   2.835 -0.2136 -0.4143  0.4797
 6794SOL    HW121823   0.085   4.765   2.765  0.9769  1.5126  1.1283
 6794SOL    HW221824   0.165   4.638   2.789 -0.7700 -0.0105 -0.7033
 6795SOL     OW21825   6.958   3.572   3.549 -0.0209  0.0233 -0.2411
 6795SOL    HW121826   6.956   3.600   3.640 -2.6401 -0.8331  0.0331
 6795SOL    HW221827   7.044   3.601   3.517  0.8305  0.6303  2.3687
 6796SOL     OW21828   4.970   5.708   8.934 -0.3057  0.1527  0.5003
 6796SOL    HW121829   4.969   5.612   8.936 -1.9893  0.0237 -1.7328
 6796SOL    HW221830   4.880   5.733   8.955 -0.2844  1.1346 -0.4828
 6797SOL     OW21831   1.178   7.337  10.281 -0.1610 -0.2994  0.0780
 6797SOL    HW121832   1.180   7.433  10.275  0.8768 -0.2975  0.1611
 6797SOL    HW221833   1.103   7.318  10.337 -0.0478  0.4984  0.5203
 6798SOL     OW21834   2.193   5.647   0.480  0.2167  0.0777 -0.3231
 6798SOL    HW121835   2.227   5.637   0.569 -0.8075  1.6829  0.3038
 6798SOL    HW221836   2.271   5.661   0.426  0.7769  0.5042  0.5681
 6799SOL     OW21837   5.109   0.569   9.371  0.0539  0.3376  0.3361
 6799SOL    HW121838   5.061   0.554   9.452  0.2256 -0.9940  0.2204
 6799SOL    HW221839   5.190   0.519   9.382  1.3401  2.3094  0.4307
 6800SOL     OW21840   0.735   6.433   4.834 -0.8710  0.7226  0.2859
 6800SOL    HW121841   0.820   6.409   4.872 -0.7287  2.1538  0.9380
 6800SOL    HW221842   0.675   6.431   4.908 -1.1457  0.8955  0.0674
 6801SOL     OW21843   1.753   4.892   6.488  0.3313 -0.0631  0.4827
 6801SOL    HW121844   1.679   4.946   6.461  0.4431 -0.4538 -0.6479
 6801SOL    HW221845   1.747   4.814   6.433  1.0602 -0.5070  1.0171
 6802SOL     OW21846   5.539   2.442  12.386 -0.0142  0.5166 -0.4481
 6802SOL    HW121847   5.515   2.391  12.463 -1.8077  0.2177 -1.1619
 6802SOL    HW221848   5.493   2.525  12.396 -0.8028  0.2279 -1.4875
 6803SOL     OW21849   6.108   4.303   5.743  0.1816 -0.2961 -0.0418
 6803SOL    HW121850   6.146   4.315   5.656  0.3943 -1.0341 -0.0553
 6803SOL    HW221851   6.165   4.239   5.786 -0.0706 -0.1296  0.5443
 6804SOL     OW21852   1.627   7.322   1.886  0.2884 -0.8212  0.0164
 6804SOL    HW121853   1.666   7.401   1.925  0.1591 -0.4175 -0.6683
 6804SOL    HW221854   1.663   7.250   1.938  1.8416 -0.4518 -0.4978
 6805SOL     OW21855   3.546   2.773  11.314  0.1199 -0.0960  0.2584
 6805SOL    HW121856   3.571   2.790  11.405 -3.3800  1.1023  1.1630
 6805SOL    HW221857   3.533   2.859  11.275  1.4338 -0.5944 -1.3903
 6806SOL     OW21858   3.358   6.030   4.718  0.3124 -0.0932  0.1617
 6806SOL    HW121859   3.338   5.975   4.642  0.9241  1.3215 -1.0753
 6806SOL    HW221860   3.391   5.969   4.784  1.8641 -1.1091 -1.4713
 6807SOL     OW21861   7.168   5.518  10.533  1.0346 -0.0182  0.0124
 6807SOL    HW121862   7.209   5.592  10.577 -2.4226  1.0504  1.8129
 6807SOL    HW221863   7.145   5.457  10.603 -0.8981 -0.2368 -0.7262
 6808SOL     OW21864   5.859   1.765   3.923 -0.5203 -0.2484 -0.0089
 6808SOL    HW121865   5.863   1.809   4.008  0.2330  0.7140 -0.5174
 6808SOL    HW221866   5.786   1.703   3.931 -0.3284 -0.3267  1.3982
 6809SOL     OW21867   7.024   6.590   1.324 -0.3105  0.1034  0.0170
 6809SOL    HW121868   7.062   6.677   1.339 -2.4497  1.3240 -1.2378
 6809SOL    HW221869   7.006   6.588   1.230 -0.1369 -1.8044 -0.0083
 6810SOL     OW21870   0.336   6.843   2.573 -0.6057 -0.0059  0.2227
 6810SOL    HW121871   0.302   6.755   2.587  2.2218 -0.7653  3.5770
 6810SOL    HW221872   0.341   6.853   2.478 -0.9125 -3.4846 -0.2577
 6811SOL     OW21873   1.643   5.814   9.955  0.2285 -0.1538 -0.5528
 6811SOL    HW121874   1.731   5.852   9.959 -0.2823  1.1596 -1.1766
 6811SOL    HW221875   1.605   5.850   9.875 -0.8567 -0.7572 -0.3258
 6812SOL     OW21876   4.341   7.901   7.252  0.2199 -0.0512  0.2881
 6812SOL    HW121877   4.252   7.875   7.273 -0.0222  0.9371  0.5313
 6812SOL    HW221878   4.391   7.819   7.251 -0.3416 -0.4367  1.8265
 6813SOL     OW21879   7.285   0.742   5.727 -0.3619 -0.2189 -0.0487
 6813SOL    HW121880   7.206   0.792   5.705  0.0123  0.5802  0.3500
 6813SOL    HW221881   7.357   0.799   5.700  0.0785 -0.5483  0.4146
 6814SOL     OW21882   5.451   2.922   7.687  0.0795 -0.0691 -0.3742
 6814SOL    HW121883   5.418   2.938   7.598 -0.1095 -1.1301 -0.5088
 6814SOL    HW221884   5.413   2.992   7.739 -1.3305 -0.4888 -0.7901
 6815SOL     OW21885   2.487   4.297   6.024  0.5010  0.3368  0.0595
 6815SOL    HW121886   2.443   4.355   5.962  0.7228  3.5280  2.6489
 6815SOL    HW221887   2.428   4.293   6.099  1.9645 -0.1498  1.2262
 6816SOL     OW21888   3.105   6.536   1.790  0.0870  0.2788 -0.8267
 6816SOL    HW121889   3.178   6.475   1.780 -0.7095 -0.7563 -0.5861
 6816SOL    HW221890   3.146   6.622   1.796  1.3480 -0.3467  0.1219
 6817SOL     OW21891   2.350   5.288   9.405  0.4179  0.9097 -0.2716
 6817SOL    HW121892   2.265   5.244   9.408 -0.7542  2.7324 -2.8682
 6817SOL    HW221893   2.413   5.221   9.428 -1.5370 -1.1896 -0.7082
 6818SOL     OW21894   2.742   0.032   3.047  0.2586  0.5515 -0.2754
 6818SOL    HW121895   2.777   0.021   3.136  0.4760 -1.0188 -0.5174
 6818SOL    HW221896   2.707   0.121   3.046  1.4271  1.0632  0.9654
 6819SOL     OW21897   4.609   7.951   6.977  0.5616  0.2274  0.0674
 6819SOL    HW121898   4.520   7.985   6.969  1.1881  1.7339 -1.0271
 6819SOL    HW221899   4.609   7.871   6.925 -0.2758 -0.0892  0.5300
 6820SOL     OW21900   2.057   2.404  10.994 -0.0691 -0.6074 -0.1090
 6820SOL    HW121901   2.015   2.466  10.935 -2.0419  2.2173  3.7873
 6820SOL    HW221902   1.984   2.356  11.034  0.9836 -1.0853  1.3260
 6821SOL     OW21903   6.057   4.515   5.059  0.2064 -0.3509 -0.0161
 6821SOL    HW121904   6.111   4.552   4.989 -0.5240  1.9977  0.5524
 6821SOL    HW221905   5.979   4.570   5.060  0.3564 -0.0366  2.8454
 6822SOL     OW21906   5.764   7.850   0.047  0.2805 -0.4084  0.1622
 6822SOL    HW121907   5.839   7.821  -0.004  1.4548  0.3303  1.3979
 6822SOL    HW221908   5.799   7.916   0.107 -1.8367  1.9726 -1.0126
 6823SOL     OW21909   7.766   3.684  10.245 -0.1342  0.4511 -0.5449
 6823SOL    HW121910   7.853   3.717  10.222  0.2876 -0.8487 -0.9356
 6823SOL    HW221911   7.739   3.737  10.320  1.9580 -0.5070  1.0083
 6824SOL     OW21912   3.943   3.657  11.206 -0.6187 -0.0695  0.6040
 6824SOL    HW121913   4.009   3.657  11.275  2.2947  2.8734 -1.8563
 6824SOL    HW221914   3.910   3.747  11.204  0.0251  0.1984 -2.2692
 6825SOL     OW21915   2.650   0.760   2.807  0.2935 -0.5474 -0.1422
 6825SOL    HW121916   2.592   0.790   2.737 -0.3605 -0.6431  0.3454
 6825SOL    HW221917   2.694   0.839   2.838 -0.1771 -0.3433  0.0171
 6826SOL     OW21918   0.453   7.957   0.619 -0.0615 -0.4473  0.1683
 6826SOL    HW121919   0.480   8.004   0.540  0.1563  0.8383  0.9665
 6826SOL    HW221920   0.473   8.018   0.690  0.4720 -1.8730  1.2882
 6827SOL     OW21921   7.236   2.182   9.158 -0.0391 -0.7638  0.4587
 6827SOL    HW121922   7.151   2.189   9.202 -0.4877  0.4161 -0.5235
 6827SOL    HW221923   7.231   2.246   9.087  2.3357  0.6578  1.4546
 6828SOL     OW21924   3.187   4.571   2.038 -0.3434  0.1822 -0.3580
 6828SOL    HW121925   3.243   4.643   2.008  2.5994 -0.9034  1.9072
 6828SOL    HW221926   3.238   4.492   2.018 -1.8949 -1.0185  0.2765
 6829SOL     OW21927   7.674   4.906   0.830  0.0244  0.3481 -0.6149
 6829SOL    HW121928   7.707   4.818   0.811 -0.3447  0.0540  0.0956
 6829SOL    HW221929   7.692   4.920   0.923  1.8295  1.7891 -1.1146
 6830SOL     OW21930   0.424   1.574   2.870 -0.5937 -0.0218 -0.7128
 6830SOL    HW121931   0.366   1.530   2.808 -1.1516 -1.7402  0.9410
 6830SOL    HW221932   0.493   1.511   2.889 -0.8919  0.1034  1.0060
 6831SOL     OW21933   1.738   6.145   8.049  0.2008  0.2179 -0.4928
 6831SOL    HW121934   1.821   6.117   8.010  0.0778 -1.0846  0.1166
 6831SOL    HW221935   1.759   6.224   8.098  1.0502 -0.0245 -0.4644
 6832SOL     OW21936   4.749   5.209   8.312  0.0531 -0.2838  0.3845
 6832SOL    HW121937   4.765   5.285   8.368 -2.5281 -0.1416  1.0645
 6832SOL    HW221938   4.714   5.142   8.371 -2.1762 -0.3355 -0.8449
 6833SOL     OW21939   0.071   7.434   6.448 -0.7864 -0.4501 -0.0522
 6833SOL    HW121940   0.049   7.522   6.417 -0.5829 -0.9540 -1.7428
 6833SOL    HW221941   0.165   7.435   6.461 -1.0706  0.2918  2.4694
 6834SOL     OW21942   2.154   7.353   0.610 -0.5932 -0.6010  0.6392
 6834SOL    HW121943   2.167   7.289   0.680  0.9987 -1.2622 -0.2170
 6834SOL    HW221944   2.231   7.410   0.615  0.4886 -1.7228 -1.6163
 6835SOL     OW21945   5.702   3.836   5.777 -0.7133  0.5364  0.2994
 6835SOL    HW121946   5.694   3.833   5.872  0.5126 -0.9975  0.4122
 6835SOL    HW221947   5.621   3.797   5.744  0.0216 -1.6155  0.8609
 6836SOL     OW21948   6.247   2.565  10.389 -0.5359  0.2092  0.2757
 6836SOL    HW121949   6.206   2.482  10.366 -2.2738  0.7361  1.3307
 6836SOL    HW221950   6.251   2.613  10.306 -0.6821 -0.4419 -0.1116
 6837SOL     OW21951   1.231   2.868   7.834 -0.1014  0.1973  0.1199
 6837SOL    HW121952   1.243   2.910   7.749 -0.5104 -0.1925 -0.1352
 6837SOL    HW221953   1.178   2.791   7.816  1.8518 -1.2839  0.3575
 6838SOL     OW21954   1.426   4.988   8.674 -0.1540  0.1762  0.3199
 6838SOL    HW121955   1.359   5.049   8.643 -1.6806 -0.6279  1.8597
 6838SOL    HW221956   1.433   5.006   8.768  0.1159 -1.3301  0.6077
 6839SOL     OW21957   6.266   7.168   3.705  0.1115  0.3175  0.0814
 6839SOL    HW121958   6.205   7.145   3.775 -2.3711  2.1136 -1.3581
 6839SOL    HW221959   6.264   7.092   3.646  0.2149 -0.1345  0.6530
 6840SOL     OW21960   0.790   1.785   3.378  0.2514 -0.0144  0.0335
 6840SOL    HW121961   0.778   1.877   3.399 -2.8696 -0.1892 -0.6078
 6840SOL    HW221962   0.818   1.745   3.461  0.4454  1.2857  0.6097
 6841SOL     OW21963   0.319   7.609   6.638  0.5337 -0.4792 -0.4760
 6841SOL    HW121964   0.401   7.654   6.618 -0.8399  2.7176  0.3949
 6841SOL    HW221965   0.251   7.670   6.611 -1.4949 -1.1585  2.5722
 6842SOL     OW21966   5.237   4.141   9.990 -0.5623  0.2602  0.0593
 6842SOL    HW121967   5.245   4.049   9.964 -1.7225 -0.2378  1.3493
 6842SOL    HW221968   5.248   4.190   9.909 -0.2504 -1.0291 -0.7026
 6843SOL     OW21969   1.473   2.371   2.915  0.2154 -0.2493  0.5890
 6843SOL    HW121970   1.532   2.343   2.845  0.4021  1.5233 -0.0393
 6843SOL    HW221971   1.530   2.390   2.989  0.0662 -1.6772  1.0880
 6844SOL     OW21972   5.609   0.897   5.319  0.2348  0.1403  0.2919
 6844SOL    HW121973   5.526   0.872   5.280 -0.5665  1.3681  1.1486
 6844SOL    HW221974   5.648   0.814   5.347 -2.1159 -0.3165  2.6362
 6845SOL     OW21975   5.947   5.809   7.139 -0.0527 -0.4107 -0.0163
 6845SOL    HW121976   5.883   5.738   7.136 -0.3702 -0.1521  0.4124
 6845SOL    HW221977   6.011   5.787   7.072 -0.2362 -1.0170 -0.0004
 6846SOL     OW21978   6.220   1.739   8.008  0.5271  0.1274 -0.1691
 6846SOL    HW121979   6.233   1.832   8.022 -0.4853  0.0276  1.7412
 6846SOL    HW221980   6.132   1.721   8.043  1.0884 -1.7089  0.4391
 6847SOL     OW21981   7.122   7.095   4.745 -0.4546  0.1287 -0.3090
 6847SOL    HW121982   7.144   7.057   4.830  1.3936 -3.1830 -2.0589
 6847SOL    HW221983   7.050   7.041   4.712 -2.1100  2.2437 -0.3878
 6848SOL     OW21984   4.466   0.878  10.345  0.8254 -0.6210  0.3993
 6848SOL    HW121985   4.541   0.870  10.286 -0.6906  0.4942 -1.8354
 6848SOL    HW221986   4.456   0.972  10.359  0.1814 -0.7860  1.1065
 6849SOL     OW21987   7.180   2.748  11.601 -0.1317 -0.3615 -0.1718
 6849SOL    HW121988   7.222   2.676  11.555 -0.2345  0.4428 -1.6038
 6849SOL    HW221989   7.250   2.790  11.650  0.1623 -0.7021 -0.2986
 6850SOL     OW21990   2.240   6.141   1.100 -0.4612 -0.3439 -0.1323
 6850SOL    HW121991   2.207   6.170   1.015 -0.5656 -0.6483 -0.1950
 6850SOL    HW221992   2.227   6.046   1.100  0.4010 -0.4744 -0.1584
 6851SOL     OW21993   2.695   3.919   4.392  0.0728  0.5804 -0.2735
 6851SOL    HW121994   2.637   3.994   4.409 -0.2414 -0.0211  1.4878
 6851SOL    HW221995   2.762   3.924   4.460 -0.3891 -1.1428  0.3640
 6852SOL     OW21996   0.150   1.147   6.351  0.1862  0.1302  0.2396
 6852SOL    HW121997   0.234   1.178   6.317  0.1290  0.1492  0.1115
 6852SOL    HW221998   0.111   1.225   6.391 -0.1521  0.3405 -0.4755
 6853SOL     OW21999   1.954   5.483   7.294 -0.6115  0.0900 -0.7568
 6853SOL    HW122000   2.042   5.499   7.330 -0.4217  0.0330 -1.1892
 6853SOL    HW222001   1.943   5.388   7.301  0.1597 -0.1634 -2.4881
 6854SOL     OW22002   2.346   2.027   7.445 -0.7326  0.1569  0.2096
 6854SOL    HW122003   2.314   2.048   7.357 -1.5416  0.7107  0.6261
 6854SOL    HW222004   2.336   1.932   7.452  1.2703 -0.2151 -1.0310
 6855SOL     OW22005   2.401   3.302   1.378 -0.4313  0.0572  0.2494
 6855SOL    HW122006   2.404   3.207   1.366 -2.2926  0.1663 -1.6059
 6855SOL    HW222007   2.343   3.316   1.453  1.3732 -0.2543  1.7957
 6856SOL     OW22008   4.440   5.458   6.759  0.4464 -0.7267  0.4385
 6856SOL    HW122009   4.523   5.485   6.798  0.9021 -0.7354 -0.5037
 6856SOL    HW222010   4.453   5.470   6.665 -0.0988 -2.1446  0.1632
 6857SOL     OW22011   5.555   4.004   7.203 -0.0098  0.0375  0.6190
 6857SOL    HW122012   5.517   3.922   7.172 -0.9876 -0.0295  1.9139
 6857SOL    HW222013   5.634   4.016   7.150 -0.6658 -0.9537 -0.6205
 6858SOL     OW22014   0.839   3.982   6.252 -0.5595 -0.4216  0.7017
 6858SOL    HW122015   0.931   3.981   6.226 -0.9499 -4.0470 -1.2345
 6858SOL    HW222016   0.797   4.041   6.190  0.2255  0.2285  0.7665
 6859SOL     OW22017   3.297   3.711   9.940 -0.1135 -0.7974  0.1827
 6859SOL    HW122018   3.252   3.706   9.856 -0.7616  0.3812  0.4365
 6859SOL    HW222019   3.365   3.644   9.935  1.3751  0.7435 -2.1682
 6860SOL     OW22020   6.998   7.864   1.247 -0.3363 -0.0463 -0.2603
 6860SOL    HW122021   7.076   7.809   1.238 -0.8296 -0.8883  0.4310
 6860SOL    HW222022   7.019   7.923   1.320 -0.3957 -0.3871  0.0394
 6861SOL     OW22023   6.154   4.250  10.446 -0.6782 -0.4833  0.1896
 6861SOL    HW122024   6.125   4.159  10.445  0.6773 -0.9610  1.4034
 6861SOL    HW222025   6.244   4.247  10.413 -1.3101  0.7272 -1.8285
 6862SOL     OW22026   1.442   3.177   7.914 -0.0604 -0.4406  0.0457
 6862SOL    HW122027   1.434   3.149   7.823  0.1364  0.1595 -0.1685
 6862SOL    HW222028   1.485   3.104   7.959  0.4481 -0.4764 -0.4916
 6863SOL     OW22029   1.709   0.796   4.759  1.2179  0.2142 -0.1457
 6863SOL    HW122030   1.647   0.729   4.731 -1.0586  2.0609  0.1871
 6863SOL    HW222031   1.763   0.752   4.825 -2.2249 -0.6173  2.4253
 6864SOL     OW22032   7.386   2.797   8.836  0.0694 -0.1227  0.5234
 6864SOL    HW122033   7.434   2.745   8.901  0.6677  0.1845  0.3306
 6864SOL    HW222034   7.440   2.792   8.757  0.0877  0.7383  0.4821
 6865SOL     OW22035   4.737   1.496   5.437 -0.3188  0.1524  0.5353
 6865SOL    HW122036   4.700   1.478   5.351 -0.1869 -0.5235  0.6138
 6865SOL    HW222037   4.691   1.575   5.467 -2.7495 -1.4311  1.2456
 6866SOL     OW22038   7.960   5.228   1.388 -0.3800  0.4448  0.3786
 6866SOL    HW122039   7.957   5.169   1.463 -0.0122 -0.7533 -0.5097
 6866SOL    HW222040   7.987   5.312   1.424  1.3082 -0.4742  1.3842
 6867SOL     OW22041   4.229   1.000  12.103 -0.3999 -0.3299 -0.1460
 6867SOL    HW122042   4.174   1.023  12.029 -1.0758 -0.3597  0.3339
 6867SOL    HW222043   4.201   1.059  12.173  0.6242  0.0938 -0.0711
 6868SOL     OW22044   0.664   3.116   0.275 -0.2800 -0.0873  0.4037
 6868SOL    HW122045   0.623   3.120   0.188  0.2672 -0.7340  0.1056
 6868SOL    HW222046   0.741   3.061   0.262  0.0838  0.2238  1.1960
 6869SOL     OW22047   5.873   2.896  11.636  0.3551  0.8614  0.2863
 6869SOL    HW122048   5.901   2.808  11.663  0.4572  0.8776  0.2350
 6869SOL    HW222049   5.832   2.933  11.713 -0.4739  0.4404  0.0580
 6870SOL     OW22050   1.750   4.714   9.494 -0.1986 -0.0559 -0.4510
 6870SOL    HW122051   1.655   4.706   9.488 -0.4446  1.3169  0.8063
 6870SOL    HW222052   1.783   4.685   9.409 -1.7305 -0.6120 -0.8761
 6871SOL     OW22053   1.906   7.008   4.254  0.9497 -0.0436  0.6389
 6871SOL    HW122054   1.883   7.030   4.163  2.4620  1.4570  0.5784
 6871SOL    HW222055   1.856   6.928   4.272 -0.5890  0.4746 -0.9886
 6872SOL     OW22056   7.554   0.724   4.384  0.2986 -0.6014  0.1250
 6872SOL    HW122057   7.573   0.776   4.462  1.4518 -2.3008  1.0522
 6872SOL    HW222058   7.555   0.786   4.312 -0.3215  0.9479  1.4020
 6873SOL     OW22059   4.278   3.813   0.924  0.2731 -0.0390  0.0191
 6873SOL    HW122060   4.343   3.829   0.856  0.6376  0.6707  0.5311
 6873SOL    HW222061   4.206   3.872   0.903  0.0860 -0.3217 -0.1453
 6874SOL     OW22062   1.345   4.341   2.551 -0.0473 -0.1864  0.3325
 6874SOL    HW122063   1.385   4.331   2.464 -1.4949 -0.4428 -0.3327
 6874SOL    HW222064   1.418   4.363   2.608  0.7288  1.8040 -1.2791
 6875SOL     OW22065   3.023   0.064   2.630 -0.4392 -0.2548 -0.0956
 6875SOL    HW122066   2.959   0.049   2.561 -0.6159  1.0245 -0.2440
 6875SOL    HW222067   3.043  -0.023   2.664 -1.4768 -0.7690 -0.7443
 6876SOL     OW22068   0.527   5.124   4.531  0.0418  0.0710  0.2252
 6876SOL    HW122069   0.455   5.157   4.585  1.8135 -0.3894  3.0476
 6876SOL    HW222070   0.578   5.203   4.508  0.2689  0.0870  0.7743
 6877SOL     OW22071   5.081   4.030   4.469 -0.5496  0.5966  0.2697
 6877SOL    HW122072   5.111   4.117   4.496 -0.4399  0.2025  1.4711
 6877SOL    HW222073   5.066   3.983   4.551 -1.7019 -0.1626 -0.3438
 6878SOL     OW22074   0.889   4.367   4.677 -0.8220 -0.3136 -0.5509
 6878SOL    HW122075   0.824   4.408   4.620 -0.8916 -0.7705 -0.8060
 6878SOL    HW222076   0.867   4.274   4.675 -0.3018 -0.4417 -0.4505
 6879SOL     OW22077   4.201   5.911  12.211  0.5942 -0.4055 -0.0058
 6879SOL    HW122078   4.108   5.931  12.206  0.1728 -2.2942 -0.4707
 6879SOL    HW222079   4.226   5.933  12.300  0.0773  1.5378 -0.3061
 6880SOL     OW22080   4.533   0.428   4.673  0.0152 -0.2880 -0.8941
 6880SOL    HW122081   4.589   0.504   4.691  0.3441 -0.5825 -0.6491
 6880SOL    HW222082   4.590   0.368   4.624 -0.3262 -0.2637 -1.3331
 6881SOL     OW22083   5.822   7.356   8.623 -0.0662  0.2483 -0.0292
 6881SOL    HW122084   5.785   7.284   8.674  1.7104 -0.3318  0.5383
 6881SOL    HW222085   5.916   7.335   8.616  0.2661  1.8321 -1.0031
 6882SOL     OW22086   2.466   6.462   7.439  0.0550 -0.2853  0.1182
 6882SOL    HW122087   2.433   6.546   7.407 -0.5518 -0.6668 -0.2882
 6882SOL    HW222088   2.387   6.408   7.447  0.5140 -1.0010 -0.1894
 6883SOL     OW22089   6.911   7.307  10.947  0.2997  0.0844 -0.3703
 6883SOL    HW122090   6.876   7.379  10.999  2.3873 -0.2401  1.6669
 6883SOL    HW222091   6.946   7.349  10.868 -1.5255  0.7884 -0.8631
 6884SOL     OW22092   7.836   1.080   4.405  0.1753 -0.9915  0.5138
 6884SOL    HW122093   7.782   1.106   4.480 -0.5777  0.2639 -0.4435
 6884SOL    HW222094   7.775   1.042   4.343 -0.2429  2.8561 -1.7424
 6885SOL     OW22095   0.347   4.842   4.257  0.3383  0.0780 -0.0244
 6885SOL    HW122096   0.350   4.863   4.164 -1.2311  1.3288  0.1526
 6885SOL    HW222097   0.436   4.856   4.289  0.0314  4.1632 -0.4782
 6886SOL     OW22098   7.411   7.813   9.456  0.1634  0.4188 -0.7736
 6886SOL    HW122099   7.440   7.784   9.543  1.7753 -0.3731 -1.5324
 6886SOL    HW222100   7.334   7.758   9.437  0.4250 -0.1333 -0.2766
 6887SOL     OW22101   4.965   6.214  10.408  0.0977  0.2204  0.1735
 6887SOL    HW122102   4.911   6.144  10.370  1.8042 -0.7598 -0.5306
 6887SOL    HW222103   4.903   6.286  10.421 -1.3874 -0.8347 -0.6128
 6888SOL     OW22104   6.725   4.333   9.354 -0.5185  0.0037 -0.4984
 6888SOL    HW122105   6.743   4.415   9.309  0.4867  1.1038  1.7082
 6888SOL    HW222106   6.648   4.351   9.408  0.5578  0.0662  1.1174
 6889SOL     OW22107   7.574   0.708   7.446 -0.1586 -0.3353 -0.1333
 6889SOL    HW122108   7.527   0.638   7.401  0.0141 -0.9294  0.5942
 6889SOL    HW222109   7.544   0.703   7.537  2.2255 -1.6187  0.6855
 6890SOL     OW22110   1.574   2.820   5.480 -0.4191 -0.1508 -0.0592
 6890SOL    HW122111   1.536   2.900   5.444  1.0105  0.0227 -1.3174
 6890SOL    HW222112   1.531   2.750   5.431  0.2539  0.0014 -0.8886
 6891SOL     OW22113   6.380   2.077   3.089 -0.5071  0.4448  0.2206
 6891SOL    HW122114   6.360   1.989   3.056 -1.7308 -0.3114  2.7922
 6891SOL    HW222115   6.460   2.101   3.042  0.4219 -2.4391  0.0910
 6892SOL     OW22116   1.629   4.633   2.642  0.2670  0.1534  0.0651
 6892SOL    HW122117   1.580   4.558   2.674  0.7531 -0.2977 -0.2468
 6892SOL    HW222118   1.679   4.600   2.567  2.1579  0.2451  1.2247
 6893SOL     OW22119   3.237   2.311   6.305  0.0662 -0.3550  0.0053
 6893SOL    HW122120   3.181   2.322   6.382  0.8011 -0.0436  0.5045
 6893SOL    HW222121   3.300   2.244   6.330  1.4045  0.9718  0.3394
 6894SOL     OW22122   5.174   7.292   0.267  0.3399  0.5119  0.6516
 6894SOL    HW122123   5.226   7.217   0.238 -0.6029 -0.0645  0.3954
 6894SOL    HW222124   5.158   7.342   0.187  0.5905  0.7513  0.7495
 6895SOL     OW22125   6.189   0.814   8.268  0.2239  0.3513 -0.2408
 6895SOL    HW122126   6.239   0.798   8.188 -0.1683 -3.5447  0.1341
 6895SOL    HW222127   6.255   0.822   8.337  0.4547  0.5884 -0.4853
 6896SOL     OW22128   0.401   2.046   4.085  0.1661  0.4893 -0.1672
 6896SOL    HW122129   0.426   1.971   4.031  0.1734 -0.8270  1.5518
 6896SOL    HW222130   0.481   2.097   4.094  1.1799 -1.2654  1.5664
 6897SOL     OW22131   1.866   7.280   1.018 -0.4276  0.6238  0.0168
 6897SOL    HW122132   1.781   7.245   1.043 -1.2824  1.3300 -1.7293
 6897SOL    HW222133   1.925   7.251   1.087 -2.2144  0.7529  1.6896
 6898SOL     OW22134   1.811   6.766  10.269  0.0551 -0.2655  0.3983
 6898SOL    HW122135   1.899   6.736  10.244  0.6177  0.9140  0.8797
 6898SOL    HW222136   1.826   6.846  10.318 -1.3693  0.7571 -0.7392
 6899SOL     OW22137   2.786   5.423  11.744  0.2003  0.0448 -0.5851
 6899SOL    HW122138   2.746   5.507  11.768 -1.0654 -0.5728 -0.4435
 6899SOL    HW222139   2.770   5.416  11.650 -1.1208 -0.7433 -0.3238
 6900SOL     OW22140   0.144   3.378   6.355 -0.1231  0.6929 -0.2436
 6900SOL    HW122141   0.130   3.288   6.323  0.7181  0.4409  0.0747
 6900SOL    HW222142   0.212   3.413   6.298  1.1722  0.3447  1.0396
 6901SOL     OW22143   1.659   7.086   9.701  0.3266 -0.2143  0.3500
 6901SOL    HW122144   1.602   7.011   9.718 -2.0784  1.3108 -0.4751
 6901SOL    HW222145   1.665   7.091   9.606 -2.1492  2.3391  0.2045
 6902SOL     OW22146   6.109   7.970   0.248  0.0134  0.1562 -0.2218
 6902SOL    HW122147   6.037   8.020   0.208  0.3048  1.1911  0.5086
 6902SOL    HW222148   6.085   7.965   0.340  0.2325 -0.6525 -0.2044
 6903SOL     OW22149   5.250   6.533  10.301  0.0192 -0.1345  0.5695
 6903SOL    HW122150   5.157   6.542  10.321 -0.1264 -1.5546  0.6500
 6903SOL    HW222151   5.295   6.562  10.380 -0.3221  0.8411  0.4275
 6904SOL     OW22152   7.173   1.933   6.558 -0.7165 -0.5431  0.7958
 6904SOL    HW122153   7.120   1.879   6.618  1.1514 -1.7508  1.4800
 6904SOL    HW222154   7.261   1.927   6.595 -0.1639  1.7167 -0.0662
 6905SOL     OW22155   3.334   5.273   6.032  0.0718 -0.1668 -0.2103
 6905SOL    HW122156   3.358   5.183   6.056  0.9155  0.4799  1.5390
 6905SOL    HW222157   3.414   5.323   6.047 -1.0229  1.2574  1.1528
 6906SOL     OW22158   2.504   1.478   9.023  0.4413 -0.1422 -0.3482
 6906SOL    HW122159   2.427   1.505   8.971 -1.2933  0.5583  2.3841
 6906SOL    HW222160   2.489   1.386   9.042  0.1433  0.0406  0.3404
 6907SOL     OW22161   1.283   3.950   6.171  0.3731 -0.2337 -0.5089
 6907SOL    HW122162   1.217   3.991   6.115  0.8471  1.2805  0.0101
 6907SOL    HW222163   1.322   3.881   6.116 -0.8690 -0.4280 -1.1837
 6908SOL     OW22164   0.012   4.731   5.936  0.0802 -0.4470  0.0112
 6908SOL    HW122165   0.071   4.682   5.878  0.2318  0.3047 -0.4887
 6908SOL    HW222166   0.022   4.688   6.021 -0.4313 -1.8082 -0.5842
 6909SOL     OW22167   3.900   4.266   2.290 -0.7817 -0.3476 -0.1672
 6909SOL    HW122168   3.839   4.304   2.228 -0.5759 -1.9662 -1.4644
 6909SOL    HW222169   3.962   4.217   2.235 -0.0002 -1.0467  1.2662
 6910SOL     OW22170   0.100   4.841   5.593  0.4508 -0.1528  0.1566
 6910SOL    HW122171   0.013   4.844   5.555  0.1949 -0.6097  0.6827
 6910SOL    HW222172   0.124   4.748   5.591  0.7087 -0.0966  0.4762
 6911SOL     OW22173   0.187   6.498   1.874  0.3852  0.1133 -0.1287
 6911SOL    HW122174   0.262   6.479   1.817  0.1507 -0.2156 -0.3251
 6911SOL    HW222175   0.135   6.419   1.873  0.1876  0.2377  0.2547
 6912SOL     OW22176   3.065   0.629   0.899 -0.2082  0.1974 -0.2157
 6912SOL    HW122177   2.976   0.621   0.864 -0.1822  0.0019 -0.2402
 6912SOL    HW222178   3.091   0.719   0.878 -0.7469  0.5645  0.6357
 6913SOL     OW22179   1.388   5.889  11.555 -0.3349  0.7721  0.3551
 6913SOL    HW122180   1.446   5.882  11.479  1.1131  2.4067  1.2504
 6913SOL    HW222181   1.345   5.803  11.561  1.7554 -0.3891 -0.5267
 6914SOL     OW22182   4.999   7.621   2.106 -0.1453 -0.4545  0.4744
 6914SOL    HW122183   5.026   7.554   2.044 -0.5804  0.5737 -0.8781
 6914SOL    HW222184   4.903   7.615   2.109 -0.1787 -0.0085  0.4692
 6915SOL     OW22185   5.320   1.040   7.911 -0.4551  0.0003 -0.2207
 6915SOL    HW122186   5.280   1.051   7.825  0.3349 -2.8892 -1.1002
 6915SOL    HW222187   5.250   1.004   7.965 -0.5223  0.2770 -0.1226
 6916SOL     OW22188   5.807   4.789  10.271 -0.2103 -1.0136 -0.7417
 6916SOL    HW122189   5.717   4.813  10.246 -0.1678  0.0045  0.0419
 6916SOL    HW222190   5.849   4.766  10.188 -1.0118 -0.8601 -1.2019
 6917SOL     OW22191   1.308   3.071   5.578  0.6443  0.0522  0.2079
 6917SOL    HW122192   1.385   3.070   5.636 -0.7285  1.7814  2.2455
 6917SOL    HW222193   1.344   3.058   5.490  2.8667 -2.7084  1.3547
 6918SOL     OW22194   4.547   2.873   7.380 -0.1602 -0.3154 -0.1873
 6918SOL    HW122195   4.477   2.928   7.415 -0.1607 -1.9157  2.6864
 6918SOL    HW222196   4.537   2.790   7.427  1.9185 -1.5870 -1.8115
 6919SOL     OW22197   0.365   7.552   9.016 -0.3492  0.0588  0.0345
 6919SOL    HW122198   0.353   7.457   9.019  1.8116 -0.2573  0.5919
 6919SOL    HW222199   0.455   7.564   8.987  0.2485  1.8593  2.3092
 6920SOL     OW22200   0.967   7.948   5.806 -0.3695 -0.0013  0.5306
 6920SOL    HW122201   0.878   7.975   5.785 -0.5525 -1.0074 -0.0826
 6920SOL    HW222202   1.023   8.011   5.761 -0.7676  0.4650  0.6837
 6921SOL     OW22203   0.914   0.422   6.373  0.2133 -0.4372 -0.6706
 6921SOL    HW122204   0.977   0.350   6.376  0.2777 -0.3431  0.8379
 6921SOL    HW222205   0.849   0.395   6.308  1.5038 -0.7657 -1.8859
 6922SOL     OW22206   2.790   7.738   6.013  0.6548 -0.2517  1.0830
 6922SOL    HW122207   2.704   7.697   6.006  0.9447 -0.7045 -0.2982
 6922SOL    HW222208   2.772   7.832   6.012  0.2128 -0.3212 -0.4495
 6923SOL     OW22209   0.651   0.446   9.999 -0.3909 -0.8489 -0.3557
 6923SOL    HW122210   0.714   0.461  10.069 -2.6538 -1.4042  1.9251
 6923SOL    HW222211   0.629   0.353  10.006 -1.6095 -0.6240 -0.9664
 6924SOL     OW22212   0.238   1.240   5.233  0.5064  0.3586 -0.2882
 6924SOL    HW122213   0.273   1.289   5.158  0.6396  1.1645  0.2894
 6924SOL    HW222214   0.152   1.279   5.249  0.6137  0.4117  0.1795
 6925SOL     OW22215   5.364   1.070   1.934 -0.3488  0.6110 -0.5910
 6925SOL    HW122216   5.365   1.160   1.904 -2.0516  0.6383 -0.6539
 6925SOL    HW222217   5.404   1.073   2.020  0.1792  1.3226 -0.8538
 6926SOL     OW22218   2.389   5.123   3.311 -0.4817  0.2040  0.1929
 6926SOL    HW122219   2.398   5.186   3.383  3.3105  0.6646 -0.4961
 6926SOL    HW222220   2.435   5.163   3.237 -2.3810 -1.2113 -1.8980
 6927SOL     OW22221   1.372   6.111   9.163  0.2413  0.0384  0.2058
 6927SOL    HW122222   1.340   6.199   9.145  0.5488 -0.1299 -1.3052
 6927SOL    HW222223   1.300   6.067   9.207 -1.6953 -0.3315 -3.0664
 6928SOL     OW22224   2.441   7.341   2.383 -0.1875  0.4206 -0.2488
 6928SOL    HW122225   2.530   7.307   2.379  0.0995  1.2048 -0.7152
 6928SOL    HW222226   2.391   7.272   2.428  0.6021 -0.1134 -0.1694
 6929SOL     OW22227   7.327   0.230   3.136  0.1514 -0.1623 -0.4362
 6929SOL    HW122228   7.265   0.157   3.130  1.4703 -1.2901 -1.1336
 6929SOL    HW222229   7.340   0.244   3.230  1.2378 -2.0903 -0.2452
 6930SOL     OW22230   0.767   7.728   1.231  0.4545  0.0292  0.5143
 6930SOL    HW122231   0.785   7.807   1.282  1.1098 -0.0931  0.4811
 6930SOL    HW222232   0.851   7.683   1.226  0.6192  0.4876 -1.4731
 6931SOL     OW22233   0.296   6.327  10.894 -0.1164  0.0395  0.3358
 6931SOL    HW122234   0.283   6.241  10.855 -0.5770  0.3291 -0.1664
 6931SOL    HW222235   0.236   6.329  10.969  0.4423 -0.3507  0.8003
 6932SOL     OW22236   5.852   5.330  12.057 -0.2950 -0.2000  0.2829
 6932SOL    HW122237   5.808   5.313  12.141 -1.9330 -0.6037 -0.6181
 6932SOL    HW222238   5.929   5.273  12.059 -1.6903 -2.2103  0.4820
 6933SOL     OW22239   4.960   1.837   0.358  0.0618  0.1518 -0.0408
 6933SOL    HW122240   5.002   1.919   0.333  0.8626 -0.3622 -0.4343
 6933SOL    HW222241   4.914   1.858   0.440  2.0895  0.4678  1.0923
 6934SOL     OW22242   7.558   6.328   6.604 -0.2200 -0.8609 -0.0710
 6934SOL    HW122243   7.643   6.298   6.570  0.5241 -0.4769  1.3579
 6934SOL    HW222244   7.525   6.387   6.536  1.4159  0.2394  0.0232
 6935SOL     OW22245   7.003   6.280  11.786  0.1239  0.6007  0.0515
 6935SOL    HW122246   7.075   6.226  11.818  0.3879  0.0962 -1.3173
 6935SOL    HW222247   7.003   6.357  11.844  1.2811  0.2614  0.5374
 6936SOL     OW22248   6.023   6.114   2.144 -0.0188  0.2700  1.1902
 6936SOL    HW122249   6.018   6.197   2.097 -1.8413 -0.4859 -0.0919
 6936SOL    HW222250   6.051   6.137   2.233  0.6749  2.0817  0.5323
 6937SOL     OW22251   6.494   5.285   1.125  0.1379 -0.5307 -0.0518
 6937SOL    HW122252   6.481   5.376   1.152 -3.1100 -1.3997  1.7929
 6937SOL    HW222253   6.486   5.287   1.029 -0.7979  1.0101  0.0318
 6938SOL     OW22254   1.149   1.075   4.037  0.1135  0.7719 -0.1241
 6938SOL    HW122255   1.171   1.136   4.107  0.5602  0.9150 -0.3811
 6938SOL    HW222256   1.124   1.130   3.964  0.8918  0.6679 -0.4800
 6939SOL     OW22257   4.138   3.530   5.484  0.3718 -0.0404  0.0236
 6939SOL    HW122258   4.070   3.495   5.427  0.2701  1.4287 -0.8208
 6939SOL    HW222259   4.141   3.624   5.463  1.6979  0.1806  1.0338
 6940SOL     OW22260   5.312   2.125   4.106  0.1375 -0.2078 -0.2436
 6940SOL    HW122261   5.243   2.083   4.157  1.1992 -1.2160  0.4178
 6940SOL    HW222262   5.364   2.172   4.170 -2.0572  3.9331 -1.1054
 6941SOL     OW22263   2.035   5.040   7.633  0.0815 -0.1084  0.4307
 6941SOL    HW122264   2.055   4.955   7.592  0.8785  0.4940 -0.4779
 6941SOL    HW222265   2.111   5.058   7.689 -0.6429 -0.5505  1.5840
 6942SOL     OW22266   1.521   6.548   9.972 -0.2856 -0.0252  0.5458
 6942SOL    HW122267   1.515   6.558  10.067  0.4595 -0.8998  0.6937
 6942SOL    HW222268   1.432   6.563   9.941 -0.6878 -0.4417  1.4574
 6943SOL     OW22269   5.929   3.911  11.100  0.2087  0.3173 -0.6404
 6943SOL    HW122270   5.877   3.991  11.091  0.4952  0.6891  0.8129
 6943SOL    HW222271   5.864   3.840  11.092 -0.2074  0.7133 -0.8395
 6944SOL     OW22272   6.520   1.109   6.837 -0.2507  0.1187  0.6885
 6944SOL    HW122273   6.498   1.155   6.756  0.9186  0.3114  0.4583
 6944SOL    HW222274   6.438   1.068   6.865 -1.1465  1.6703  0.4644
 6945SOL     OW22275   3.183   4.873   1.087 -0.0278 -0.0255 -0.3052
 6945SOL    HW122276   3.246   4.844   1.021  1.3129 -1.5090  1.5125
 6945SOL    HW222277   3.169   4.966   1.068  1.7296  0.0347 -1.5351
 6946SOL     OW22278   6.960   2.603  10.549  0.3474  0.1938  0.0141
 6946SOL    HW122279   6.865   2.604  10.539  0.1641  1.0900  1.5644
 6946SOL    HW222280   6.994   2.585  10.461 -1.2101  1.1017 -0.7966
 6947SOL     OW22281   3.512   2.019   7.757 -0.0599 -0.2932 -0.1170
 6947SOL    HW122282   3.420   2.024   7.781 -0.2349 -1.9808 -0.3190
 6947SOL    HW222283   3.534   1.926   7.764  1.5281  0.0188 -0.4569
 6948SOL     OW22284   1.246   1.587  11.343  0.6293 -0.2167  0.3730
 6948SOL    HW122285   1.223   1.675  11.373  0.8966 -0.2722  0.7494
 6948SOL    HW222286   1.337   1.575  11.370  1.0395 -0.0940 -0.8806
 6949SOL     OW22287   0.740   2.230   2.766 -0.2560  0.6542  1.0139
 6949SOL    HW122288   0.814   2.170   2.765 -0.2893  0.5612 -1.8205
 6949SOL    HW222289   0.780   2.317   2.762 -0.2528  0.5964 -0.7858
 6950SOL     OW22290   7.615   3.419   8.091  0.2865  0.0203 -0.1318
 6950SOL    HW122291   7.528   3.430   8.127  0.5697  1.4444  0.1629
 6950SOL    HW222292   7.601   3.382   8.003 -0.6785  1.3928 -0.5695
 6951SOL     OW22293   0.629   5.348   4.920  0.4833 -0.0937  0.2713
 6951SOL    HW122294   0.710   5.297   4.922  0.4334 -0.1775  0.1852
 6951SOL    HW222295   0.560   5.282   4.929  0.4638  0.1026  1.8258
 6952SOL     OW22296   2.154   2.377   4.762  0.2675 -0.1347  0.4106
 6952SOL    HW122297   2.073   2.416   4.729 -2.1153 -1.6460  3.7764
 6952SOL    HW222298   2.167   2.299   4.709 -0.8637 -0.1736  0.1662
 6953SOL     OW22299   2.591   4.688   6.034  0.1399 -1.0043  0.2965
 6953SOL    HW122300   2.619   4.631   5.962  0.5235 -0.9480  0.4012
 6953SOL    HW222301   2.500   4.662   6.050 -1.0034  0.9753 -2.1897
 6954SOL     OW22302   1.652   1.194  11.874  0.1000  0.3597  0.1609
 6954SOL    HW122303   1.717   1.263  11.887 -0.4355  0.9198 -0.0488
 6954SOL    HW222304   1.676   1.154  11.791  1.0180 -0.4014  0.7726
 6955SOL     OW22305   3.099   0.765  11.435  0.3912  0.2831  0.5137
 6955SOL    HW122306   3.129   0.684  11.392  1.0866 -0.1466  1.7516
 6955SOL    HW222307   3.013   0.782  11.396  1.6410  0.8568 -2.2531
 6956SOL     OW22308   0.220   5.872   8.377 -0.7718 -0.1428  0.3159
 6956SOL    HW122309   0.293   5.810   8.370  0.6933  1.6879 -1.8099
 6956SOL    HW222310   0.213   5.890   8.471  0.5537 -1.4105  0.7058
 6957SOL     OW22311   0.937   3.332   0.103  0.0497  0.3189  0.2100
 6957SOL    HW122312   0.960   3.260   0.162 -1.4175  0.4714  1.0037
 6957SOL    HW222313   0.918   3.406   0.161 -2.7111  0.1110 -0.2955
 6958SOL     OW22314   7.472   1.450   4.385 -0.7920  0.3116 -0.3545
 6958SOL    HW122315   7.529   1.438   4.310  3.1541  0.1675  2.3737
 6958SOL    HW222316   7.455   1.544   4.388 -0.3733  0.4122 -1.0354
 6959SOL     OW22317   4.655   5.426   0.984  0.0687 -0.5481  0.5488
 6959SOL    HW122318   4.625   5.506   0.941 -0.1121 -0.6875  0.4122
 6959SOL    HW222319   4.669   5.364   0.913 -0.6915 -0.9305  0.7166
 6960SOL     OW22320   4.693   1.023   8.072 -0.6405  0.1343  0.0090
 6960SOL    HW122321   4.648   0.943   8.098 -0.4277  0.4401  1.4011
 6960SOL    HW222322   4.641   1.093   8.112  0.6596  0.5343  1.0526
 6961SOL     OW22323   7.414   1.279   5.487 -1.0120  0.3968 -0.0379
 6961SOL    HW122324   7.423   1.335   5.564 -0.5091 -0.0405  0.2320
 6961SOL    HW222325   7.323   1.251   5.487 -0.9783  0.2838  0.4894
 6962SOL     OW22326   1.915   5.971   6.275 -0.3135 -0.0407  0.2609
 6962SOL    HW122327   1.910   5.927   6.190 -0.2003 -1.6670  1.0456
 6962SOL    HW222328   1.835   6.023   6.280  0.6044  1.7098 -1.6428
 6963SOL     OW22329   5.464   0.702   1.940 -0.2729  0.5426 -0.1844
 6963SOL    HW122330   5.408   0.639   1.985  0.4063  0.1356  0.1010
 6963SOL    HW222331   5.404   0.749   1.882 -0.9533  0.2842  0.2909
 6964SOL     OW22332   7.155   7.720   9.423  0.3800 -0.6079 -0.3065
 6964SOL    HW122333   7.092   7.768   9.371  1.0697  2.0658  1.1339
 6964SOL    HW222334   7.104   7.651   9.466 -1.5732  1.2927  0.6173
 6965SOL     OW22335   4.818   7.711   4.656 -0.9681 -0.0260  0.1394
 6965SOL    HW122336   4.739   7.661   4.678 -1.9725  0.5674 -1.9247
 6965SOL    HW222337   4.890   7.651   4.676 -1.9041 -0.6411  1.9229
 6966SOL     OW22338   1.673   5.430   8.342 -0.2363 -0.0614  0.1542
 6966SOL    HW122339   1.731   5.384   8.403 -0.4187  0.3101  0.6181
 6966SOL    HW222340   1.678   5.522   8.370  0.7115  0.3416 -1.2210
 6967SOL     OW22341   5.954   2.572   3.759  0.0248  0.5160  0.0203
 6967SOL    HW122342   6.010   2.649   3.770  0.8720 -0.0047 -0.5033
 6967SOL    HW222343   5.868   2.600   3.790  0.7013  1.1699  1.3983
 6968SOL     OW22344   0.989   5.141   8.468 -0.4090 -0.1409 -0.1987
 6968SOL    HW122345   1.008   5.084   8.542  1.4290  1.8649  0.9974
 6968SOL    HW222346   1.041   5.105   8.396  2.4652  1.0424  1.0948
 6969SOL     OW22347   1.330   1.999   2.707 -0.2092  0.1858 -0.1377
 6969SOL    HW122348   1.273   2.039   2.641 -0.1131 -0.4284 -0.6067
 6969SOL    HW222349   1.307   1.906   2.705 -0.2075  0.1608  0.7099
 6970SOL     OW22350   7.498   6.080   5.511  0.5496  0.5639 -0.0610
 6970SOL    HW122351   7.563   6.030   5.462 -0.0666  0.0037 -0.3182
 6970SOL    HW222352   7.517   6.171   5.490  0.9319  0.3764 -0.5380
 6971SOL     OW22353   2.147   4.154   0.614  0.5139  0.3497 -0.5031
 6971SOL    HW122354   2.221   4.118   0.565  0.2257 -1.7183  0.4908
 6971SOL    HW222355   2.168   4.137   0.706 -1.7203 -1.4875 -0.2431
 6972SOL     OW22356   6.036   6.926   7.285 -0.0178  0.4248  0.0845
 6972SOL    HW122357   6.027   6.844   7.236  0.3778 -0.1526  0.9511
 6972SOL    HW222358   6.011   6.994   7.223  0.4930 -0.2844 -0.9194
 6973SOL     OW22359   2.424   5.062   3.662  0.1813  0.0176 -0.2965
 6973SOL    HW122360   2.382   4.999   3.602  0.5515 -0.4495 -0.0704
 6973SOL    HW222361   2.382   5.046   3.747  0.0191  0.3318 -0.3139
 6974SOL     OW22362   0.058   4.080   7.360 -0.0146  0.4677  0.2876
 6974SOL    HW122363   0.073   4.006   7.420  0.4105  0.1995 -0.1458
 6974SOL    HW222364  -0.023   4.119   7.391 -0.8926 -0.9082 -0.1953
 6975SOL     OW22365   7.494   2.162   1.486 -0.2749  0.1901  0.1977
 6975SOL    HW122366   7.480   2.069   1.469 -0.1500 -0.1214  1.6391
 6975SOL    HW222367   7.437   2.182   1.560  1.7823  0.5191  1.8012
 6976SOL     OW22368   5.644   1.802   2.822 -0.6787 -0.4875 -0.4512
 6976SOL    HW122369   5.591   1.824   2.899  0.4369 -0.1182  0.2429
 6976SOL    HW222370   5.581   1.771   2.757 -1.3806 -4.5129  1.8350
 6977SOL     OW22371   3.240   2.569   9.163  0.4962  0.3485 -0.3184
 6977SOL    HW122372   3.258   2.662   9.150  0.2166  0.2055 -1.9382
 6977SOL    HW222373   3.193   2.542   9.083  2.4078 -1.6475 -0.8589
 6978SOL     OW22374   5.126   3.213  10.564  0.0288  0.4334 -0.3973
 6978SOL    HW122375   5.120   3.225  10.469  1.2461 -0.0298 -0.5384
 6978SOL    HW222376   5.038   3.184  10.589 -0.1837  0.1358 -1.4381
 6979SOL     OW22377   3.566   5.374  10.383 -0.5893  0.4519 -0.0147
 6979SOL    HW122378   3.484   5.421  10.399 -0.2022  1.0406  0.2971
 6979SOL    HW222379   3.629   5.416  10.442 -0.4116 -0.9815  0.8727
 6980SOL     OW22380   0.433   0.400   1.885  0.5106 -0.4028  0.4557
 6980SOL    HW122381   0.383   0.415   1.805 -0.1121  0.4383  0.9783
 6980SOL    HW222382   0.409   0.312   1.912 -2.2453  0.6012  1.6962
 6981SOL     OW22383   0.715   7.290   0.528 -0.6670  0.0261 -0.1262
 6981SOL    HW122384   0.803   7.322   0.544 -0.5319 -0.2640 -0.2971
 6981SOL    HW222385   0.725   7.196   0.515 -1.0505 -0.0693  0.2551
 6982SOL     OW22386   1.988   7.418  12.383 -0.0753 -0.0016 -0.0308
 6982SOL    HW122387   1.902   7.451  12.359 -0.8972 -1.5543  0.6380
 6982SOL    HW222388   2.008   7.351  12.318 -0.0635 -0.6938  0.6641
 6983SOL     OW22389   3.480   3.507   0.099  0.1277 -0.6132 -0.1153
 6983SOL    HW122390   3.495   3.413   0.091  0.3645 -0.7108  1.1842
 6983SOL    HW222391   3.390   3.513   0.131  0.0820 -0.3975 -0.2880
 6984SOL     OW22392   5.464   2.861   4.093 -0.3035 -0.3417 -0.0743
 6984SOL    HW122393   5.450   2.820   4.179  1.4478 -0.9496 -0.0306
 6984SOL    HW222394   5.461   2.788   4.031 -0.4319 -0.0652 -0.3935
 6985SOL     OW22395   6.337   3.234   9.170  0.0725  0.4223  0.0783
 6985SOL    HW122396   6.362   3.322   9.143  0.6528  0.3751  0.4658
 6985SOL    HW222397   6.273   3.247   9.240  1.0249  0.5447  0.9463
 6986SOL     OW22398   5.665   1.501   7.199 -0.1008 -0.9392 -0.4325
 6986SOL    HW122399   5.668   1.406   7.192 -1.4128 -1.0250 -0.1736
 6986SOL    HW222400   5.660   1.532   7.108 -1.0567 -1.2029 -0.4794
 6987SOL     OW22401   3.417   1.139   4.415  0.2959  0.4074 -0.4340
 6987SOL    HW122402   3.429   1.072   4.349 -3.1264  1.6260 -2.5989
 6987SOL    HW222403   3.422   1.222   4.367 -0.0114  1.4646  1.2484
 6988SOL     OW22404   7.905   2.610   0.949 -0.0902 -0.1840 -0.1857
 6988SOL    HW122405   7.901   2.561   1.031  0.8548 -1.6776 -0.9928
 6988SOL    HW222406   7.989   2.585   0.911 -0.0078  1.3594 -1.0908
 6989SOL     OW22407   2.446   1.810   6.492 -0.1276  0.1731 -0.2158
 6989SOL    HW122408   2.515   1.759   6.535  0.3835  1.4900  0.5633
 6989SOL    HW222409   2.493   1.873   6.438 -0.6843  1.4249  0.7172
 6990SOL     OW22410   3.580   0.008  12.331 -0.3082 -0.0775  0.4039
 6990SOL    HW122411   3.629  -0.029  12.259 -0.9364 -0.9845  0.4235
 6990SOL    HW222412   3.615  -0.035  12.409 -1.3633 -1.0083  0.3821
 6991SOL     OW22413   3.757   5.403   4.599  0.0416  0.4106 -0.7101
 6991SOL    HW122414   3.752   5.396   4.504  0.0808  2.2345 -0.8909
 6991SOL    HW222415   3.851   5.402   4.618  0.0929  1.3584 -0.8476
 6992SOL     OW22416   4.114   7.353   2.112  0.3503  0.3085 -0.4526
 6992SOL    HW122417   4.105   7.317   2.024 -0.2237 -0.1425 -0.2161
 6992SOL    HW222418   4.044   7.311   2.162 -0.2618  1.6628 -0.1357
 6993SOL     OW22419   1.198   0.565   6.402  0.0214 -0.2981  0.5655
 6993SOL    HW122420   1.115   0.522   6.379 -0.1954 -0.1445  1.0498
 6993SOL    HW222421   1.172   0.635   6.462  0.7674 -2.1193  3.1985
 6994SOL     OW22422   1.205   7.123   6.544  0.6575 -0.7236  0.2525
 6994SOL    HW122423   1.244   7.075   6.617  0.8874 -0.6699  0.1651
 6994SOL    HW222424   1.277   7.135   6.481  0.6137 -0.2278  0.2931
 6995SOL     OW22425   6.225   1.814   6.783 -0.3333 -0.4545  0.2233
 6995SOL    HW122426   6.270   1.788   6.703 -1.8557  1.4907 -1.3731
 6995SOL    HW222427   6.260   1.901   6.804 -0.3267 -0.7137  1.3893
 6996SOL     OW22428   0.158   2.467   6.462  0.0262  0.2058  0.1341
 6996SOL    HW122429   0.211   2.545   6.446 -0.3369 -0.0399 -2.7502
 6996SOL    HW222430   0.069   2.492   6.437 -0.0241 -1.1881 -1.2137
 6997SOL     OW22431   5.534   7.713   1.141 -0.1744 -0.1915 -0.4649
 6997SOL    HW122432   5.603   7.696   1.077  0.3621 -0.3768  0.1544
 6997SOL    HW222433   5.453   7.691   1.094  0.3528 -3.0918 -0.2206
 6998SOL     OW22434   6.105   6.698   2.146  0.4699  0.1857 -0.8919
 6998SOL    HW122435   6.173   6.631   2.137  0.2721  0.0561 -1.5202
 6998SOL    HW222436   6.112   6.750   2.065  0.8267  1.1239 -0.2759
 6999SOL     OW22437   6.274   7.084   7.358 -0.3403 -0.5316  0.4583
 6999SOL    HW122438   6.246   7.168   7.322  0.4533  0.4755  2.0690
 6999SOL    HW222439   6.193   7.036   7.374 -0.7826 -0.2382 -0.8304
 7000SOL     OW22440   6.255   6.061  12.136 -0.0813 -0.5695  0.2658
 7000SOL    HW122441   6.307   6.112  12.198  1.2920  0.0217 -1.2861
 7000SOL    HW222442   6.307   5.981  12.122  0.4236 -0.0080 -1.2474
 7001SOL     OW22443   3.716   4.073   4.612  0.2303  0.1566  0.1490
 7001SOL    HW122444   3.726   4.146   4.673  1.7948 -0.8959  1.2200
 7001SOL    HW222445   3.756   3.999   4.657  1.2872 -0.7048 -2.1011
 7002SOL     OW22446   5.536   2.007   2.027 -0.0836  0.2244  0.1234
 7002SOL    HW122447   5.593   1.966   1.962  0.9043  0.9223  0.5385
 7002SOL    HW222448   5.465   2.045   1.975 -0.1193 -0.5266 -0.4064
 7003SOL     OW22449   7.617   2.888   9.738  0.3203  0.4613  0.0412
 7003SOL    HW122450   7.613   2.855   9.648 -1.1652  1.0081 -0.1159
 7003SOL    HW222451   7.560   2.829   9.788 -0.1009  1.0834  0.3053
 7004SOL     OW22452   6.089   4.052   5.992  0.2064 -0.1706 -0.2114
 7004SOL    HW122453   6.018   4.029   5.932  0.7767  0.2237 -1.0683
 7004SOL    HW222454   6.045   4.078   6.073 -0.6091 -0.2776 -0.6094
 7005SOL     OW22455   4.643   6.138  10.019 -0.0181 -0.1976  0.3154
 7005SOL    HW122456   4.601   6.224  10.019 -0.9142 -0.5931 -1.5429
 7005SOL    HW222457   4.655   6.117   9.926 -0.1064 -2.2287  0.7215
 7006SOL     OW22458   2.891   1.565   3.755 -0.3232 -0.0359 -0.3161
 7006SOL    HW122459   2.893   1.661   3.763  2.0081 -0.0385 -0.3491
 7006SOL    HW222460   2.798   1.543   3.764 -0.6701  1.9696  2.6166
 7007SOL     OW22461   4.576   2.467   0.174  0.0011  0.3459 -0.4730
 7007SOL    HW122462   4.486   2.495   0.159  0.1652  1.9799  1.1937
 7007SOL    HW222463   4.576   2.433   0.264  0.6006 -1.8222 -1.2300
 7008SOL     OW22464   5.904   6.293   1.360 -0.0155 -0.1146 -0.4108
 7008SOL    HW122465   5.980   6.269   1.412  2.0892  1.0337 -2.7490
 7008SOL    HW222466   5.846   6.338   1.421  1.4867 -0.4147  1.3142
 7009SOL     OW22467   6.336   3.613  12.060  0.1257  0.4221 -0.6514
 7009SOL    HW122468   6.267   3.678  12.046  0.1221  0.6041  0.2092
 7009SOL    HW222469   6.417   3.659  12.040  0.1670  0.8632  0.5221
 7010SOL     OW22470   6.556   1.838  12.434  0.1355 -0.3867  0.5150
 7010SOL    HW122471   6.599   1.856  12.517 -1.0480  0.2635  1.0082
 7010SOL    HW222472   6.601   1.895  12.371 -0.6437  1.0441  1.2188
 7011SOL     OW22473   6.288   4.241   9.052  0.0228 -0.3163  0.4301
 7011SOL    HW122474   6.367   4.194   9.078  0.6199  1.0337  1.1908
 7011SOL    HW222475   6.216   4.182   9.074  0.6764 -0.3977  2.5047
 7012SOL     OW22476   1.340   5.404   7.974  0.0337  0.3471 -0.1852
 7012SOL    HW122477   1.255   5.447   7.974  0.1922  0.7303  1.4785
 7012SOL    HW222478   1.403   5.475   7.985  0.4609 -0.0841  0.2256
 7013SOL     OW22479   7.611   2.686   5.367  0.0176  0.4070 -0.0006
 7013SOL    HW122480   7.530   2.636   5.372 -0.0111  0.5835  1.7354
 7013SOL    HW222481   7.586   2.776   5.387  0.4715  0.6703 -0.5772
 7014SOL     OW22482   2.436   7.497   7.493 -0.5482  0.3269 -0.2295
 7014SOL    HW122483   2.472   7.409   7.489  0.3724  0.5606  1.9110
 7014SOL    HW222484   2.353   7.491   7.445  0.6060 -1.0860 -2.1660
 7015SOL     OW22485   5.407   7.639   3.102 -0.0655  0.0227 -0.0660
 7015SOL    HW122486   5.416   7.711   3.165 -1.0485  0.0101  0.1039
 7015SOL    HW222487   5.370   7.680   3.024  2.3671  0.2974 -1.1709
 7016SOL     OW22488   4.307   3.107   9.494 -0.6452  0.4243 -0.1791
 7016SOL    HW122489   4.242   3.171   9.523 -0.6333 -0.5685  2.2199
 7016SOL    HW222490   4.381   3.119   9.553  0.9251  0.6847 -2.0745
 7017SOL     OW22491   2.277   1.153   0.092 -0.0476 -0.2773  0.4907
 7017SOL    HW122492   2.253   1.068   0.055 -0.1491 -0.3622  0.7528
 7017SOL    HW222493   2.369   1.143   0.115 -0.0442 -0.2995  0.4683
 7018SOL     OW22494   6.939   3.049   2.862 -0.2306  0.5229 -0.3542
 7018SOL    HW122495   6.844   3.063   2.853 -0.2051  2.1442  1.3957
 7018SOL    HW222496   6.948   3.003   2.946  0.5941  1.7075  0.2360
 7019SOL     OW22497   3.977   0.179  11.323  0.6031  0.6724 -0.4941
 7019SOL    HW122498   3.935   0.204  11.241  1.2372  0.7743 -0.7966
 7019SOL    HW222499   3.918   0.211  11.391 -1.5098 -2.0875 -0.8715
 7020SOL     OW22500   4.353   1.792   0.870  0.1999 -0.2507 -0.0418
 7020SOL    HW122501   4.306   1.851   0.811  0.3373  0.9586  1.0089
 7020SOL    HW222502   4.444   1.822   0.866  0.3990 -0.8479 -0.0269
 7021SOL     OW22503   5.072   4.308  10.834  0.0142 -0.3312  0.3998
 7021SOL    HW122504   5.035   4.250  10.768 -0.8736 -0.0909  0.6670
 7021SOL    HW222505   5.158   4.332  10.800 -1.2150  1.4549 -1.7300
 7022SOL     OW22506   2.089   0.343   6.800  0.1023  0.2828 -0.5051
 7022SOL    HW122507   2.126   0.262   6.835  3.0123  1.7154  0.0027
 7022SOL    HW222508   2.082   0.401   6.876  2.1609  1.8835 -1.4265
 7023SOL     OW22509   0.168   7.391   5.479 -0.0253 -0.3581  0.5003
 7023SOL    HW122510   0.127   7.477   5.470 -0.7749 -0.8116 -0.6133
 7023SOL    HW222511   0.106   7.330   5.440 -0.0063 -1.5769  2.2444
 7024SOL     OW22512   3.913   0.116  12.176  0.0172  0.4458  0.8413
 7024SOL    HW122513   3.976   0.087  12.110  0.9690  0.8913  1.5232
 7024SOL    HW222514   3.833   0.068  12.155 -0.0248  1.3055 -1.2266
 7025SOL     OW22515   1.778   7.547   1.980  0.1374  0.2706  0.1088
 7025SOL    HW122516   1.784   7.619   1.917  0.0788  0.2564  0.0862
 7025SOL    HW222517   1.701   7.569   2.033 -0.2130 -0.0560 -0.2548
 7026SOL     OW22518   1.089   0.080   3.702  0.2963  0.1726 -0.0735
 7026SOL    HW122519   1.037   0.106   3.626 -1.9874  2.1589  1.9450
 7026SOL    HW222520   1.040   0.007   3.741 -0.3709  1.2024  1.1222
 7027SOL     OW22521   7.640   5.218   2.087  0.1363 -0.1319 -0.6128
 7027SOL    HW122522   7.591   5.136   2.097  0.5085 -0.4492 -1.2884
 7027SOL    HW222523   7.647   5.253   2.176  0.2300 -0.9913 -0.2743
 7028SOL     OW22524   0.029   1.854   8.275 -0.2073 -0.4448  0.0229
 7028SOL    HW122525  -0.063   1.874   8.292 -0.2490  0.1146 -0.8358
 7028SOL    HW222526   0.046   1.775   8.326 -0.9958 -0.2139  0.6674
 7029SOL     OW22527   3.686   0.517   9.982 -0.4105 -0.1869  0.4757
 7029SOL    HW122528   3.704   0.607   9.956 -0.4946 -0.5029 -0.7967
 7029SOL    HW222529   3.741   0.502  10.059 -0.6689  1.0435  0.9170
 7030SOL     OW22530   1.993   5.452  12.028 -0.0946 -0.5164  0.2740
 7030SOL    HW122531   1.989   5.395  11.951 -2.6549  0.3085 -0.3167
 7030SOL    HW222532   2.079   5.493  12.023  0.8804 -2.5240 -0.5812
 7031SOL     OW22533   5.191   7.312   1.377  0.9123 -0.3837  0.2069
 7031SOL    HW122534   5.204   7.224   1.412  1.4414 -0.6516 -0.6431
 7031SOL    HW222535   5.096   7.325   1.381  0.3096 -2.5081 -3.1011
 7032SOL     OW22536   1.379   6.284  10.306  0.5315 -0.3034  0.6776
 7032SOL    HW122537   1.407   6.371  10.276 -0.1537 -0.2454  0.1673
 7032SOL    HW222538   1.289   6.276  10.273 -0.6304  0.1238  3.4320
 7033SOL     OW22539   3.783   5.176   2.387  0.6453  0.1064  0.5356
 7033SOL    HW122540   3.715   5.232   2.349  0.3520 -0.1952  0.6203
 7033SOL    HW222541   3.777   5.094   2.339  0.3343 -0.2473  1.1662
 7034SOL     OW22542   0.719   2.528   2.895 -0.5812 -0.4508 -0.4474
 7034SOL    HW122543   0.806   2.529   2.934 -0.8239 -3.0785  0.3401
 7034SOL    HW222544   0.695   2.621   2.888  1.2591  0.2739  1.6226
 7035SOL     OW22545   3.512   5.321   6.576  0.0635 -0.1144  0.1339
 7035SOL    HW122546   3.554   5.249   6.622 -1.2012  0.0823  1.7203
 7035SOL    HW222547   3.433   5.282   6.539  0.1734  0.1199 -0.3454
 7036SOL     OW22548   4.269   6.551   2.647 -0.3545 -0.2143  0.4132
 7036SOL    HW122549   4.269   6.464   2.608 -0.0953  0.1441 -0.4236
 7036SOL    HW222550   4.359   6.565   2.676 -0.2308  0.0404 -0.0835
 7037SOL     OW22551   6.020   4.680   0.523  0.1689  0.2436  0.1621
 7037SOL    HW122552   6.035   4.637   0.439  0.2591 -0.7548  0.6742
 7037SOL    HW222553   5.937   4.644   0.554 -0.8503  2.0416 -0.3654
 7038SOL     OW22554   1.805   6.367   9.322  0.5480  0.3090  0.3675
 7038SOL    HW122555   1.829   6.275   9.310  0.0349  0.1143  0.8331
 7038SOL    HW222556   1.726   6.366   9.376  0.4599  1.0187  0.2739
 7039SOL     OW22557   4.095   4.514  11.128 -0.7067  0.7159 -0.3667
 7039SOL    HW122558   4.149   4.435  11.130 -0.2101  1.0142 -1.3254
 7039SOL    HW222559   4.157   4.585  11.110 -0.9859  1.4825  1.4100
 7040SOL     OW22560   4.309   0.473  11.802  0.0605 -0.1855 -0.2168
 7040SOL    HW122561   4.232   0.418  11.816 -0.7501  0.9952  0.1313
 7040SOL    HW222562   4.382   0.422  11.837 -0.6730 -1.0104  0.1465
 7041SOL     OW22563   6.581   3.876   7.093 -0.4427  0.5008 -0.3509
 7041SOL    HW122564   6.653   3.891   7.032 -0.3703 -1.3781 -0.7701
 7041SOL    HW222565   6.513   3.833   7.041 -1.2606  0.8482  0.4004
 7042SOL     OW22566   2.521   5.936   0.933 -0.0634 -0.4815 -0.1418
 7042SOL    HW122567   2.518   5.927   1.028 -0.2386 -2.7926 -0.3069
 7042SOL    HW222568   2.520   5.846   0.900 -2.0976  0.2418 -2.3855
 7043SOL     OW22569   6.627   0.364   1.196 -0.5875 -0.4821 -0.3968
 7043SOL    HW122570   6.633   0.458   1.215 -1.4858 -0.3095 -0.9011
 7043SOL    HW222571   6.713   0.330   1.218  0.0735  0.6351 -1.1523
 7044SOL     OW22572   0.668   5.971   6.939  0.0493 -0.0385 -0.2631
 7044SOL    HW122573   0.734   6.030   6.976  0.3984 -0.9575  0.6380
 7044SOL    HW222574   0.601   5.965   7.007  0.7851 -1.8985  0.3702
 7045SOL     OW22575   2.331   1.468   6.699  0.0372  0.5201  0.3102
 7045SOL    HW122576   2.386   1.451   6.775  0.3030  2.2790  0.5658
 7045SOL    HW222577   2.379   1.429   6.626  0.2788 -0.3091  0.8925
 7046SOL     OW22578   1.397   2.094   4.440 -0.1372  0.2083  0.1529
 7046SOL    HW122579   1.388   2.000   4.456 -1.9876  0.1090 -1.2112
 7046SOL    HW222580   1.488   2.104   4.411  0.0456 -1.1720  0.1911
 7047SOL     OW22581   7.705   4.342   4.707 -0.2220 -0.1543  0.0098
 7047SOL    HW122582   7.764   4.398   4.758  0.3628 -0.8219  0.0796
 7047SOL    HW222583   7.760   4.268   4.680 -0.2978  0.5704 -2.2965
 7048SOL     OW22584   1.522   3.519   3.320  0.9694  0.6050  0.0200
 7048SOL    HW122585   1.464   3.487   3.390  0.2173 -1.6227 -1.5175
 7048SOL    HW222586   1.542   3.609   3.346 -1.3009  0.7076  1.8328
 7049SOL     OW22587   6.566   6.548   3.461  0.6147  0.1889 -0.6746
 7049SOL    HW122588   6.589   6.479   3.524  0.1253  0.0760 -0.6149
 7049SOL    HW222589   6.581   6.629   3.509  0.4840  0.1076 -0.4936
 7050SOL     OW22590   0.610   2.071   9.894  0.5361 -0.3683 -0.8231
 7050SOL    HW122591   0.668   2.012   9.942  0.8367 -0.5903 -1.4459
 7050SOL    HW222592   0.548   2.013   9.850 -0.6359 -0.1051  0.4136
 7051SOL     OW22593   7.752   4.638   0.746 -0.1002  0.1104 -0.2258
 7051SOL    HW122594   7.799   4.625   0.664  0.2042  0.5157 -0.1173
 7051SOL    HW222595   7.782   4.566   0.802 -1.0844 -0.7900 -0.7959
 7052SOL     OW22596   0.528   3.092   3.653  0.0510 -0.1495 -0.3265
 7052SOL    HW122597   0.478   3.146   3.592 -0.2431 -1.0718 -0.9097
 7052SOL    HW222598   0.618   3.122   3.644 -0.3104  1.2790  0.4695
 7053SOL     OW22599   3.033   7.151   3.789 -0.1716  0.2564  0.0443
 7053SOL    HW122600   2.957   7.208   3.801 -0.0904  0.4804 -0.4791
 7053SOL    HW222601   3.053   7.158   3.696 -0.2748 -0.7766 -0.0688
 7054SOL     OW22602   7.971   6.037   1.654  0.2704 -0.1662  0.1290
 7054SOL    HW122603   7.881   6.006   1.647  0.4828 -0.9703  0.7839
 7054SOL    HW222604   8.019   5.962   1.690  1.5317 -0.3308 -1.7864
 7055SOL     OW22605   5.498   3.717  10.166 -0.4306  0.1383  0.3729
 7055SOL    HW122606   5.493   3.691  10.074 -0.5638  0.0878  0.3942
 7055SOL    HW222607   5.479   3.637  10.215  0.2249  0.0289  0.4538
 7056SOL     OW22608   2.647   7.438   9.224  0.0592  0.1596  0.2887
 7056SOL    HW122609   2.705   7.366   9.249  0.4033  0.1523 -0.5257
 7056SOL    HW222610   2.627   7.423   9.132 -0.1509  0.9100  0.2041
 7057SOL     OW22611   3.901   5.878   2.571  0.0917  0.3949 -0.5009
 7057SOL    HW122612   3.876   5.809   2.632 -1.3520 -0.5647 -2.0726
 7057SOL    HW222613   3.839   5.949   2.588  0.5798  0.6785  0.0813
 7058SOL     OW22614   5.929   6.905  12.078  0.9757  0.3815 -0.1069
 7058SOL    HW122615   5.952   6.985  12.032  1.4591  2.1782  3.0015
 7058SOL    HW222616   6.005   6.886  12.133  0.1660 -1.1812  0.5462
 7059SOL     OW22617   1.520   3.404   0.896  0.1557 -0.0614 -0.0986
 7059SOL    HW122618   1.474   3.405   0.980 -0.6110  0.0649 -0.5109
 7059SOL    HW222619   1.513   3.313   0.866 -0.7391  0.1723 -0.6425
 7060SOL     OW22620   4.090   7.311  10.559  0.8971  0.6465  0.1968
 7060SOL    HW122621   4.163   7.328  10.620 -0.7520  3.1062  1.6730
 7060SOL    HW222622   4.021   7.274  10.614 -0.2621  1.9093 -0.3464
 7061SOL     OW22623   2.324   7.726   1.774  0.0588 -0.0126  0.0443
 7061SOL    HW122624   2.413   7.758   1.785  0.4952 -1.4429  0.8766
 7061SOL    HW222625   2.276   7.761   1.849  0.3812 -0.7694  0.6101
 7062SOL     OW22626   2.402   4.694   2.228 -0.0109  0.4808  0.0044
 7062SOL    HW122627   2.472   4.651   2.277 -0.3698  0.7672  0.7903
 7062SOL    HW222628   2.442   4.776   2.197  0.0635  0.5552  0.2904
 7063SOL     OW22629   2.573   2.506  11.861  0.2775  0.6610 -0.5078
 7063SOL    HW122630   2.525   2.586  11.839  0.2528  0.0194 -3.1037
 7063SOL    HW222631   2.507   2.437  11.857  0.8323  0.1574 -1.0993
 7064SOL     OW22632   0.800   2.799   9.233  0.1268 -0.0236 -0.5123
 7064SOL    HW122633   0.743   2.858   9.283 -1.5151 -1.8495 -0.0860
 7064SOL    HW222634   0.795   2.831   9.143  1.1218  1.8076  0.0305
 7065SOL     OW22635   6.069   1.341   5.175  0.1683 -0.6195 -0.2658
 7065SOL    HW122636   6.079   1.374   5.086 -1.4123 -1.3682 -0.7513
 7065SOL    HW222637   5.994   1.389   5.210  1.2230  0.2247  0.9810
 7066SOL     OW22638   5.583   5.394   7.240 -0.4802  0.1730 -0.1634
 7066SOL    HW122639   5.537   5.336   7.180  1.4379 -0.7289 -0.8726
 7066SOL    HW222640   5.541   5.380   7.325 -1.3741 -0.7179 -0.7359
 7067SOL     OW22641   7.198   7.133   2.985  0.4643 -0.3464 -0.0109
 7067SOL    HW122642   7.244   7.079   2.921  1.7218 -0.8073  1.2363
 7067SOL    HW222643   7.228   7.222   2.968 -0.8075 -0.1375 -1.3844
 7068SOL     OW22644   1.332   7.288  11.430  0.0593  0.2520  0.1831
 7068SOL    HW122645   1.393   7.215  11.440  0.8288  1.0626  1.8332
 7068SOL    HW222646   1.264   7.272  11.495  0.1117  0.8830  0.3993
 7069SOL     OW22647   5.833   6.180   6.350 -0.1381  0.4092  0.1098
 7069SOL    HW122648   5.835   6.084   6.352 -2.6675  0.2188 -1.9729
 7069SOL    HW222649   5.904   6.204   6.292 -0.7136 -0.3568 -0.9471
 7070SOL     OW22650   4.640   7.311   8.570 -0.4621  0.4821  0.2867
 7070SOL    HW122651   4.584   7.240   8.536 -2.4342  0.9462  2.3118
 7070SOL    HW222652   4.652   7.369   8.495  0.4958 -1.5198 -1.1993
 7071SOL     OW22653   1.350   5.449   2.105 -0.1860 -0.3261 -0.3101
 7071SOL    HW122654   1.432   5.409   2.135 -1.6157 -1.7676  1.9588
 7071SOL    HW222655   1.359   5.453   2.010  1.9100 -1.7812 -0.2403
 7072SOL     OW22656   6.126   3.687   1.617 -0.0259  0.1861  0.2259
 7072SOL    HW122657   6.119   3.633   1.538 -0.6768  0.2283  0.2491
 7072SOL    HW222658   6.040   3.728   1.625  0.3597  0.9677  0.3965
 7073SOL     OW22659   4.420   2.695   2.502  0.1220  0.0366 -0.1295
 7073SOL    HW122660   4.411   2.774   2.557  1.8438  1.0413 -1.2227
 7073SOL    HW222661   4.510   2.666   2.517  0.4385  0.0022 -1.9553
 7074SOL     OW22662   7.341   0.934   9.366  0.3808  0.0460  0.2647
 7074SOL    HW122663   7.425   0.903   9.401  0.2977 -0.2636  0.1915
 7074SOL    HW222664   7.280   0.863   9.383  0.1389  0.2577  0.2840
 7075SOL     OW22665   5.374   3.538  11.549 -0.5388 -0.3881  0.2010
 7075SOL    HW122666   5.437   3.608  11.531  0.0952 -0.6977  1.1126
 7075SOL    HW222667   5.385   3.520  11.643 -0.2989 -2.0802 -0.1202
 7076SOL     OW22668   6.341   7.487   4.452  0.0857 -0.4460  0.1447
 7076SOL    HW122669   6.407   7.548   4.418 -1.0322 -0.0680 -1.5072
 7076SOL    HW222670   6.335   7.507   4.545 -0.6986  2.5074 -0.4277
 7077SOL     OW22671   1.009   0.713  11.268  0.4023 -0.2965  0.0666
 7077SOL    HW122672   1.036   0.801  11.293  0.4586 -0.0874 -0.6951
 7077SOL    HW222673   1.073   0.655  11.308  0.9116  0.0771 -0.2017
 7078SOL     OW22674   4.699   4.036  11.820  0.2329 -0.3715 -0.3210
 7078SOL    HW122675   4.696   4.129  11.843  1.6655 -0.0067 -1.4903
 7078SOL    HW222676   4.688   4.034  11.725 -0.7695 -1.4820 -0.2003
 7079SOL     OW22677   4.052   7.461   6.814 -0.3109 -0.3576 -0.4001
 7079SOL    HW122678   4.079   7.399   6.746  0.0388 -0.1672 -0.4417
 7079SOL    HW222679   3.960   7.441   6.831 -0.0457 -1.2857  0.0144
 7080SOL     OW22680   3.328   2.166  11.500  0.0759 -0.6179  0.2902
 7080SOL    HW122681   3.251   2.220  11.484 -0.7222 -0.6768  3.3926
 7080SOL    HW222682   3.367   2.154  11.413 -2.9895 -0.0337 -1.3144
 7081SOL     OW22683   6.942   1.931   8.045  0.0358 -0.1469  0.3053
 7081SOL    HW122684   6.961   1.846   8.006  1.2428 -0.5066  1.5885
 7081SOL    HW222685   6.877   1.911   8.113  1.2087 -0.2933  1.4308
 7082SOL     OW22686   5.810   2.308   3.776 -0.0531 -0.0620 -0.6949
 7082SOL    HW122687   5.807   2.394   3.734  0.5982 -0.6271 -1.9417
 7082SOL    HW222688   5.882   2.262   3.733  0.3052 -0.8642  0.6938
 7083SOL     OW22689   7.560   5.367   1.384 -0.0125  0.4929 -0.0882
 7083SOL    HW122690   7.466   5.357   1.395 -0.3928  1.8139 -1.7234
 7083SOL    HW222691   7.588   5.289   1.337 -0.1122 -0.2927  1.1040
 7084SOL     OW22692   7.152   1.441   6.002 -0.3740  0.7546  0.4908
 7084SOL    HW122693   7.243   1.465   6.019  0.3265 -1.7360  0.6386
 7084SOL    HW222694   7.157   1.367   5.942 -2.1384 -0.9242  2.2484
 7085SOL     OW22695   5.691   2.321  10.696 -0.2229  0.3763 -0.6201
 7085SOL    HW122696   5.622   2.289  10.638 -1.7155  0.6590  0.9005
 7085SOL    HW222697   5.731   2.394  10.648 -1.7675  0.9552 -1.1147
 7086SOL     OW22698   3.694   2.768  11.739 -0.9963  0.4475  0.0545
 7086SOL    HW122699   3.646   2.686  11.746  0.2483 -0.4967 -1.8049
 7086SOL    HW222700   3.780   2.743  11.705 -0.1761  2.4044  0.5449
 7087SOL     OW22701   3.040   4.251   3.875 -0.1114 -0.1726  0.3566
 7087SOL    HW122702   3.007   4.192   3.808 -0.7495  0.1778  0.3522
 7087SOL    HW222703   2.985   4.329   3.868  0.1146  0.0526  0.9770
 7088SOL     OW22704   3.223   4.877   9.468 -0.4034  0.0164 -0.4325
 7088SOL    HW122705   3.231   4.903   9.560  0.4548 -0.1994 -0.4402
 7088SOL    HW222706   3.184   4.789   9.471  1.1734 -0.6983 -0.1872
 7089SOL     OW22707   6.569   2.998   8.502  0.4849  0.4325 -0.1696
 7089SOL    HW122708   6.536   3.085   8.522 -0.5138  0.3311 -1.2666
 7089SOL    HW222709   6.632   2.979   8.572  0.1468  1.7110  0.5037
 7090SOL     OW22710   4.435   3.029   6.261 -0.0958  0.1467  0.5509
 7090SOL    HW122711   4.522   3.055   6.230  0.4342 -0.9604  1.0387
 7090SOL    HW222712   4.408   3.101   6.318  0.7338  0.2750  0.8025
 7091SOL     OW22713   4.838   3.932  10.466 -0.7309 -0.3034  0.4140
 7091SOL    HW122714   4.929   3.904  10.455 -0.4566  0.3946  0.8499
 7091SOL    HW222715   4.810   3.957  10.378 -0.5195 -0.5726  0.2684
 7092SOL     OW22716   5.811   6.470   0.140  0.0554  0.4832 -0.0980
 7092SOL    HW122717   5.879   6.465   0.207  2.3062 -0.2082 -2.2732
 7092SOL    HW222718   5.814   6.560   0.109  0.0774  0.4106 -0.3062
 7093SOL     OW22719   3.740   0.220   3.516  0.4954 -0.1256 -0.1397
 7093SOL    HW122720   3.822   0.195   3.474  0.9295 -0.9040  1.0990
 7093SOL    HW222721   3.724   0.151   3.580 -0.2585  0.8687  0.7884
 7094SOL     OW22722   1.384   5.449   7.223 -0.0818  0.1128 -0.5008
 7094SOL    HW122723   1.320   5.460   7.152  0.8593 -2.8273 -1.9698
 7094SOL    HW222724   1.334   5.407   7.293 -0.2584 -0.1839 -0.8002
 7095SOL     OW22725   5.452   1.698  10.319  0.1518 -0.5114  0.1771
 7095SOL    HW122726   5.542   1.705  10.351 -0.2127  2.0646  0.8351
 7095SOL    HW222727   5.455   1.734  10.231 -0.3218  0.1314  0.4169
 7096SOL     OW22728   5.651   6.522   6.320  0.3193  0.0859 -0.3904
 7096SOL    HW122729   5.656   6.437   6.363  0.3207 -0.1124 -0.7785
 7096SOL    HW222730   5.741   6.543   6.296  0.3004  0.1326 -0.4204
 7097SOL     OW22731   0.212   0.405   3.875 -0.0430 -0.2409 -0.3581
 7097SOL    HW122732   0.159   0.355   3.937 -0.1766  0.9873  0.5500
 7097SOL    HW222733   0.152   0.472   3.841  0.8150  0.9742  0.4477
 7098SOL     OW22734   7.546   1.832   6.320  0.2507  0.7423 -0.3173
 7098SOL    HW122735   7.509   1.900   6.376 -0.3992  1.4790 -1.6096
 7098SOL    HW222736   7.473   1.773   6.301  0.2844  0.9003 -0.9677
 7099SOL     OW22737   5.993   1.998   9.247  0.2827 -0.4444  0.2912
 7099SOL    HW122738   6.062   2.060   9.271 -1.5112  1.4655  0.8819
 7099SOL    HW222739   6.026   1.954   9.169  1.4837  1.5925 -0.4287
 7100SOL     OW22740   6.088   3.140   2.564  0.4187  0.7331  0.5788
 7100SOL    HW122741   6.101   3.129   2.470 -1.2734 -3.9977  0.5894
 7100SOL    HW222742   6.161   3.092   2.604 -0.9823 -0.8553  1.4097
 7101SOL     OW22743   1.877   5.186  12.357  0.8366 -0.7254  0.3466
 7101SOL    HW122744   1.918   5.149  12.278  0.4121 -0.8639  0.1874
 7101SOL    HW222745   1.835   5.111  12.399 -0.1818 -0.4046 -0.0713
 7102SOL     OW22746   7.371   7.363   2.501 -0.0593 -0.4974 -0.5580
 7102SOL    HW122747   7.406   7.398   2.419  1.1087 -1.0927 -0.3271
 7102SOL    HW222748   7.276   7.364   2.488 -0.1286  2.7011 -0.5612
 7103SOL     OW22749   6.951   0.965   7.276 -0.2873  0.8007 -0.5643
 7103SOL    HW122750   6.937   0.957   7.371  0.4144  1.1638 -0.4270
 7103SOL    HW222751   7.031   0.915   7.260  0.1582  1.5877 -0.8055
 7104SOL     OW22752   3.213   7.712   8.617  0.2426 -0.4059 -0.4272
 7104SOL    HW122753   3.290   7.725   8.561 -0.4717  2.2518 -0.9505
 7104SOL    HW222754   3.228   7.771   8.691  0.8987 -3.4426  2.0353
 7105SOL     OW22755   2.173   0.141   9.187  0.1691  0.0330  0.2488
 7105SOL    HW122756   2.174   0.113   9.095 -0.4437  1.4006 -0.2086
 7105SOL    HW222757   2.244   0.205   9.193 -0.2136  0.4410  0.5403
 7106SOL     OW22758   2.632   3.445   1.493  0.2310 -0.3782 -0.0744
 7106SOL    HW122759   2.590   3.361   1.474 -1.2739  0.8099 -2.4799
 7106SOL    HW222760   2.670   3.473   1.409  3.6704 -0.1273  1.3894
 7107SOL     OW22761   7.318   1.072   5.255  0.0952 -0.5866 -0.8009
 7107SOL    HW122762   7.273   1.081   5.339  1.3971  0.1277 -0.1526
 7107SOL    HW222763   7.288   1.146   5.203 -0.8324 -1.1154 -1.0535
 7108SOL     OW22764   5.710   6.500   4.689  0.4594  0.4360  0.1956
 7108SOL    HW122765   5.772   6.550   4.741  0.1625  1.6058 -0.5215
 7108SOL    HW222766   5.659   6.566   4.642 -0.8355 -0.5073  0.2006
 7109SOL     OW22767   1.535   0.493   8.112  0.1073  0.0753 -0.4276
 7109SOL    HW122768   1.483   0.414   8.127  0.0609  0.2876  0.5522
 7109SOL    HW222769   1.577   0.478   8.027 -1.3171 -0.2239 -1.1107
 7110SOL     OW22770   4.720   6.960  10.315  0.3789 -0.1853  0.5039
 7110SOL    HW122771   4.736   6.898  10.243  0.3266 -0.3934  0.6706
 7110SOL    HW222772   4.636   6.933  10.351  0.2100  0.1710  0.3868
 7111SOL     OW22773   5.042   0.681   7.065  0.2031 -0.2413  0.0456
 7111SOL    HW122774   5.123   0.717   7.102 -0.3702  0.4845  0.6232
 7111SOL    HW222775   5.054   0.586   7.071  1.5191 -0.1791 -1.0223
 7112SOL     OW22776   0.719   0.061   5.738  0.1927  0.1720  0.1209
 7112SOL    HW122777   0.712   0.081   5.644 -2.2542 -1.3693 -0.1356
 7112SOL    HW222778   0.681   0.137   5.781  0.6621  0.5830 -0.1846
 7113SOL     OW22779   6.545   4.309  12.099 -0.3685  0.0764  0.3549
 7113SOL    HW122780   6.569   4.354  12.018  0.7347  0.2323  0.7445
 7113SOL    HW222781   6.551   4.216  12.077 -1.0625  0.1098 -0.0066
 7114SOL     OW22782   7.323   0.175   6.879  0.7550  0.1618  0.6608
 7114SOL    HW122783   7.259   0.106   6.891  1.7392 -0.8695  0.1601
 7114SOL    HW222784   7.306   0.236   6.951  0.6782 -1.2339  1.8758
 7115SOL     OW22785   4.657   7.487  11.309 -0.0312  0.1982  0.4150
 7115SOL    HW122786   4.671   7.483  11.404 -3.0815  0.0652  0.9828
 7115SOL    HW222787   4.628   7.577  11.293  0.1492  0.1279 -0.3492
 7116SOL     OW22788   1.653   0.588   6.988  0.0481 -0.1447  0.1699
 7116SOL    HW122789   1.675   0.679   6.968 -1.8540  0.1311 -0.9068
 7116SOL    HW222790   1.598   0.560   6.915 -2.2251 -1.0455  2.0935
 7117SOL     OW22791   0.515   2.130   3.800 -0.3856 -0.5598  0.8321
 7117SOL    HW122792   0.508   2.068   3.726  1.4385  0.0568  0.1065
 7117SOL    HW222793   0.598   2.109   3.841 -1.1562 -0.5620  2.4672
 7118SOL     OW22794   4.485   3.587   1.419  0.0818 -0.4414  0.4993
 7118SOL    HW122795   4.568   3.607   1.462  0.8088  0.0652 -1.0545
 7118SOL    HW222796   4.476   3.655   1.352 -0.8871 -1.2953 -0.2713
 7119SOL     OW22797   2.670   2.832   0.247 -0.3886  0.1422  0.0228
 7119SOL    HW122798   2.692   2.794   0.162 -1.4924 -0.5266  0.0195
 7119SOL    HW222799   2.755   2.845   0.290  0.1808  0.4311 -1.1392
 7120SOL     OW22800   1.789   4.622  10.940 -0.3322  0.2505  0.5449
 7120SOL    HW122801   1.733   4.561  10.988  2.1760 -1.6397  1.3016
 7120SOL    HW222802   1.855   4.650  11.004  1.5339 -0.2385 -1.0428
 7121SOL     OW22803   1.943   6.402   4.221 -0.4702 -0.0752  0.0672
 7121SOL    HW122804   1.891   6.411   4.141 -0.5899 -0.1685  0.1342
 7121SOL    HW222805   1.878   6.384   4.290 -0.2017 -1.9257 -0.1381
 7122SOL     OW22806   7.380   1.157  11.272 -0.3824  0.3259  0.0587
 7122SOL    HW122807   7.381   1.246  11.307  1.1856 -0.0375  1.0654
 7122SOL    HW222808   7.472   1.129  11.275 -0.7615 -1.1373 -0.7364
 7123SOL     OW22809   1.642   6.636   8.747  0.0255 -0.1401  0.7868
 7123SOL    HW122810   1.704   6.592   8.689 -0.1233  1.9174 -1.0662
 7123SOL    HW222811   1.685   6.638   8.832  1.4975 -0.7517  0.0809
 7124SOL     OW22812   7.092   0.479   2.668 -0.1832  0.3243  0.2574
 7124SOL    HW122813   7.102   0.553   2.607  0.8297 -1.3442 -1.7639
 7124SOL    HW222814   7.004   0.488   2.703 -0.0456  2.5340  0.1677
 7125SOL     OW22815   7.224   5.075   0.212  0.4503  0.2410 -0.2623
 7125SOL    HW122816   7.140   5.030   0.213  0.3275  0.3869 -1.6713
 7125SOL    HW222817   7.249   5.082   0.304 -0.8879 -0.1453  0.1523
 7126SOL     OW22818   1.463   2.390   3.873  0.3763 -0.4712 -0.1469
 7126SOL    HW122819   1.427   2.330   3.807  0.4082 -0.9170  0.2350
 7126SOL    HW222820   1.453   2.343   3.956 -0.3125  0.3683  0.2648
 7127SOL     OW22821   2.348   0.188   5.250  0.1396 -0.4312  0.2699
 7127SOL    HW122822   2.349   0.099   5.214 -0.4503 -0.8256  1.1982
 7127SOL    HW222823   2.440   0.215   5.248  0.1423 -0.4309 -1.4855
 7128SOL     OW22824   0.226   2.740   9.402  0.7129  0.5311  0.3543
 7128SOL    HW122825   0.197   2.692   9.325  0.8424 -0.1545  0.7221
 7128SOL    HW222826   0.322   2.734   9.399  0.7025 -0.0154  0.8781
 7129SOL     OW22827   3.544   2.152   4.181 -0.2236  0.5836  0.2446
 7129SOL    HW122828   3.564   2.207   4.105  0.8348  0.8532  0.6975
 7129SOL    HW222829   3.534   2.214   4.253 -3.0705  0.5126  0.0482
 7130SOL     OW22830   3.289   6.157   3.359  0.4431 -0.3297  0.0453
 7130SOL    HW122831   3.383   6.148   3.371  0.7161 -0.3861 -1.8527
 7130SOL    HW222832   3.252   6.074   3.388  1.3563 -1.6588 -2.3482
 7131SOL     OW22833   5.802   5.214  10.574 -0.0771 -0.6431 -0.3437
 7131SOL    HW122834   5.798   5.128  10.533  0.3058 -0.7018 -0.2554
 7131SOL    HW222835   5.862   5.204  10.647 -1.1914 -0.6860  0.5995
 7132SOL     OW22836   7.211   0.447  10.340 -0.0321  0.3139  0.0001
 7132SOL    HW122837   7.297   0.476  10.311  0.5783 -1.1614  0.2728
 7132SOL    HW222838   7.175   0.399  10.265  0.3865 -1.0952  0.6659
 7133SOL     OW22839   6.476   0.244  10.713 -0.2908  0.0184  0.8191
 7133SOL    HW122840   6.500   0.308  10.646 -0.4392 -1.4964 -0.7612
 7133SOL    HW222841   6.413   0.289  10.768 -0.2534  1.2924 -0.1330
 7134SOL     OW22842   2.235   6.269   2.800 -0.2409 -0.4955  0.4380
 7134SOL    HW122843   2.234   6.359   2.833 -2.1175 -0.8878  1.5854
 7134SOL    HW222844   2.233   6.280   2.704  2.9035  0.6309  0.3716
 7135SOL     OW22845   5.238   2.365   3.115  0.2837  0.0283 -0.0425
 7135SOL    HW122846   5.233   2.460   3.108 -1.4578 -0.1822 -2.4642
 7135SOL    HW222847   5.178   2.343   3.186 -0.6960  0.6148 -0.6814
 7136SOL     OW22848   6.553   3.411   0.387  0.0356 -0.2786  0.1401
 7136SOL    HW122849   6.556   3.319   0.415  2.2024 -0.3512 -0.1483
 7136SOL    HW222850   6.618   3.455   0.441 -1.4925  1.2835  0.7784
 7137SOL     OW22851   7.777   5.679   3.327 -0.2716 -0.4072 -0.6865
 7137SOL    HW122852   7.837   5.753   3.318 -2.2773  1.3306 -0.6354
 7137SOL    HW222853   7.747   5.662   3.237 -1.4735  0.3470 -0.4488
 7138SOL     OW22854   3.224   5.910   3.481  0.1894  0.0770 -0.0759
 7138SOL    HW122855   3.274   5.850   3.537  1.8105  0.1359 -1.4121
 7138SOL    HW222856   3.148   5.859   3.453  1.5671 -1.4149 -1.2250
 7139SOL     OW22857   7.911   0.382   5.919  0.3811  0.2670  0.1410
 7139SOL    HW122858   7.863   0.405   5.840  1.1642 -0.4266 -0.5419
 7139SOL    HW222859   8.003   0.398   5.898  0.5729  0.4315  1.0352
 7140SOL     OW22860   1.093   2.933   0.655  0.4211 -0.1015  0.2247
 7140SOL    HW122861   1.186   2.923   0.677  1.2952 -1.1696 -3.3592
 7140SOL    HW222862   1.090   3.010   0.598 -1.2146  0.8306  1.4872
 7141SOL     OW22863   4.656   1.520   3.676  0.2372  0.0732  0.6754
 7141SOL    HW122864   4.689   1.595   3.725  2.0125 -0.2786  0.0772
 7141SOL    HW222865   4.575   1.497   3.721 -0.7248  2.7118  0.4896
 7142SOL     OW22866   0.635   2.604   5.973 -0.0031 -0.7784  0.0853
 7142SOL    HW122867   0.607   2.627   5.885  1.5997  0.1846 -0.2082
 7142SOL    HW222868   0.641   2.688   6.019 -0.5592 -1.2436  1.0468
 7143SOL     OW22869   1.084   7.115   9.159 -0.1428  0.0629  0.1166
 7143SOL    HW122870   1.019   7.131   9.227 -1.3851  0.5893 -1.1661
 7143SOL    HW222871   1.035   7.072   9.088  0.9911  0.0789 -0.7020
 7144SOL     OW22872   2.528   2.118   2.343 -0.0674 -0.3630  0.2236
 7144SOL    HW122873   2.562   2.199   2.382 -0.9469  0.1641 -0.0612
 7144SOL    HW222874   2.587   2.100   2.270 -0.1429  0.3209 -0.0226
 7145SOL     OW22875   6.735   5.120   6.887 -0.5071  0.1590  0.0843
 7145SOL    HW122876   6.680   5.198   6.896  1.5779  1.7317  0.2159
 7145SOL    HW222877   6.758   5.118   6.794  1.2814  1.1440  0.4470
 7146SOL     OW22878   7.942   5.267   3.911 -0.1601  0.0559  0.0026
 7146SOL    HW122879   8.003   5.313   3.968  0.7825 -0.2104 -0.7685
 7146SOL    HW222880   7.859   5.313   3.923  0.8282  2.2485 -1.0575
 7147SOL     OW22881   7.054   0.726   3.920 -0.1887 -0.2269  0.0417
 7147SOL    HW122882   7.013   0.646   3.889 -0.3920  0.3093 -1.1486
 7147SOL    HW222883   7.138   0.698   3.956  0.1225 -0.8755 -1.1517
 7148SOL     OW22884   7.823   5.646   1.788 -0.1490 -0.1706 -0.1490
 7148SOL    HW122885   7.898   5.662   1.731 -0.4887  0.2844 -0.4759
 7148SOL    HW222886   7.849   5.681   1.873  0.3984 -0.9409  0.0069
 7149SOL     OW22887   5.740   2.959   9.773 -0.1116 -0.0025 -0.2751
 7149SOL    HW122888   5.674   2.890   9.784 -1.8069  1.6504  0.3848
 7149SOL    HW222889   5.716   3.001   9.690  0.0390  0.6937  0.0310
 7150SOL     OW22890   0.624   6.698  10.762 -0.4754 -0.4779 -0.2593
 7150SOL    HW122891   0.552   6.690  10.825 -0.8751  0.7312 -0.5376
 7150SOL    HW222892   0.646   6.791  10.762  1.2020 -0.8487 -0.0779
 7151SOL     OW22893   3.247   0.217   1.165 -0.9547 -0.4710 -0.2422
 7151SOL    HW122894   3.155   0.230   1.188 -0.9008 -1.2165  0.4177
 7151SOL    HW222895   3.295   0.245   1.242 -0.6836 -1.1946 -0.1443
 7152SOL     OW22896   6.715   0.060   8.452  0.5776  0.0241  0.0587
 7152SOL    HW122897   6.797   0.031   8.412  0.4587 -1.3530  0.7469
 7152SOL    HW222898   6.656  -0.014   8.444 -0.1984  0.5474  0.6927
 7153SOL     OW22899   4.707   3.556   3.637 -0.5194 -0.3788  0.1738
 7153SOL    HW122900   4.772   3.521   3.576 -0.2865 -1.8730  1.2263
 7153SOL    HW222901   4.735   3.646   3.654 -0.9454  0.3130 -2.3785
 7154SOL     OW22902   0.767   5.636   1.489  0.5301  0.1520  1.0346
 7154SOL    HW122903   0.777   5.730   1.502 -0.5760  0.8276 -2.0442
 7154SOL    HW222904   0.717   5.606   1.565 -3.4873  3.0664 -0.1133
 7155SOL     OW22905   2.039   7.935   9.592 -0.2136 -0.6450  0.6898
 7155SOL    HW122906   1.948   7.928   9.563 -0.0878 -0.5441  0.2592
 7155SOL    HW222907   2.090   7.916   9.513  0.1494 -1.6958  1.1597
 7156SOL     OW22908   1.536   3.398   1.394 -0.1901 -0.0098 -0.1984
 7156SOL    HW122909   1.603   3.461   1.369 -1.0151  0.9056 -0.1763
 7156SOL    HW222910   1.567   3.360   1.476 -0.8872  2.3024  1.2073
 7157SOL     OW22911   4.897   0.548   9.941  0.0260 -0.3408 -0.0091
 7157SOL    HW122912   4.949   0.608   9.887 -0.5847 -0.2516 -0.5166
 7157SOL    HW222913   4.946   0.541  10.023 -1.4320  3.3943  1.4098
 7158SOL     OW22914   3.688   1.999   6.951 -0.3334 -0.0515 -0.1460
 7158SOL    HW122915   3.724   1.911   6.961  0.8586  0.2086 -1.6561
 7158SOL    HW222916   3.626   1.992   6.878  0.2282  0.4535 -0.6881
 7159SOL     OW22917   3.369   2.584   6.588  0.2541  0.2212 -0.1399
 7159SOL    HW122918   3.336   2.520   6.651  1.5330 -1.5474 -1.1925
 7159SOL    HW222919   3.455   2.551   6.562  0.4890  1.7859 -1.5566
 7160SOL     OW22920   3.188   4.288   1.394  0.1130  0.1793 -0.1833
 7160SOL    HW122921   3.268   4.322   1.432 -1.1359  1.8133  1.1406
 7160SOL    HW222922   3.214   4.255   1.308  2.2781  0.1018  0.4409
 7161SOL     OW22923   3.022   0.669  11.691 -0.0431 -0.3504 -0.3984
 7161SOL    HW122924   2.948   0.729  11.681  1.0217  1.1138  0.1696
 7161SOL    HW222925   3.066   0.671  11.606 -0.1927 -0.5884 -0.4823
 7162SOL     OW22926   6.960   7.555  12.186  0.1483 -0.1746  1.0223
 7162SOL    HW122927   6.901   7.495  12.232 -1.2286  1.4387  1.4884
 7162SOL    HW222928   6.971   7.628  12.246 -0.5235  1.3145 -0.5728
 7163SOL     OW22929   3.084   5.534  10.037  0.1671  0.1344 -0.4887
 7163SOL    HW122930   3.020   5.504   9.972  1.3764  0.0638 -1.6941
 7163SOL    HW222931   3.094   5.459  10.096  0.7885 -0.6916 -1.6075
 7164SOL     OW22932   7.498   2.151   2.564 -0.2655 -0.1919 -0.4257
 7164SOL    HW122933   7.510   2.245   2.583 -0.6916 -0.1966 -0.1284
 7164SOL    HW222934   7.480   2.112   2.649 -1.0818 -0.3903 -0.6867
 7165SOL     OW22935   6.694   7.672   9.057 -0.5896  0.1746 -0.1277
 7165SOL    HW122936   6.654   7.585   9.064 -1.3891  0.5621  0.2516
 7165SOL    HW222937   6.775   7.658   9.007 -0.5972 -0.8203  0.1277
 7166SOL     OW22938   5.077   0.277   6.312 -0.0631 -0.3784 -0.2007
 7166SOL    HW122939   5.091   0.317   6.226 -1.1386 -1.8030 -1.0874
 7166SOL    HW222940   5.033   0.345   6.363  0.9483  0.6252 -0.6148
 7167SOL     OW22941   4.414   7.533   6.611 -0.2451 -0.2432  0.0097
 7167SOL    HW122942   4.473   7.461   6.632 -0.1984 -0.3342 -0.4274
 7167SOL    HW222943   4.342   7.491   6.563 -0.6452 -0.1301  0.5113
 7168SOL     OW22944   2.423   7.556   7.052 -0.4879 -0.2405  0.1586
 7168SOL    HW122945   2.461   7.513   6.975 -0.0731 -0.3271  0.4118
 7168SOL    HW222946   2.481   7.630   7.069 -2.0518  1.4054 -1.2320
 7169SOL     OW22947   5.275   4.126   5.255 -0.0010 -0.1418 -0.5513
 7169SOL    HW122948   5.319   4.093   5.333 -1.4220 -1.4752 -0.2831
 7169SOL    HW222949   5.227   4.203   5.285  0.3764  0.0341 -0.3860
 7170SOL     OW22950   5.741   3.487  10.591  0.3142 -0.1136 -0.4508
 7170SOL    HW122951   5.694   3.432  10.654  0.7865 -0.7143 -0.6172
 7170SOL    HW222952   5.717   3.451  10.506  0.3580  0.1597 -0.5797
 7171SOL     OW22953   2.750   6.382   7.632  0.3870 -0.4670 -0.6934
 7171SOL    HW122954   2.662   6.420   7.637  0.0575 -1.0325 -1.9367
 7171SOL    HW222955   2.753   6.339   7.547  0.9979 -2.6534  0.3671
 7172SOL     OW22956   1.144   1.987  10.567  0.0035  0.4006  0.1346
 7172SOL    HW122957   1.147   1.919  10.634  2.7086 -0.5481 -0.8029
 7172SOL    HW222958   1.135   1.938  10.485  1.0832  1.2109 -0.4903
 7173SOL     OW22959   4.632   6.061  11.721 -0.5473  0.1047  0.3399
 7173SOL    HW122960   4.655   6.002  11.794 -0.2737  1.2114  1.1842
 7173SOL    HW222961   4.646   6.008  11.643 -2.4564 -1.6770  1.1002
 7174SOL     OW22962   5.143   1.854   7.740  0.0268  0.0859  0.1624
 7174SOL    HW122963   5.200   1.803   7.797  0.1497 -0.7480 -0.6852
 7174SOL    HW222964   5.192   1.934   7.722  0.9047 -0.5798 -0.4799
 7175SOL     OW22965   5.915   2.770   3.053 -0.8014 -0.4483 -0.8014
 7175SOL    HW122966   5.919   2.721   3.135  1.8618  0.9808  0.0432
 7175SOL    HW222967   5.984   2.837   3.061 -3.7354  3.1014 -2.0930
 7176SOL     OW22968   5.021   4.906  11.887  0.2386 -0.1529 -0.0795
 7176SOL    HW122969   4.988   4.833  11.834 -1.5324  0.8714 -0.4768
 7176SOL    HW222970   4.943   4.957  11.908  1.4781  1.9754 -0.3362
 7177SOL     OW22971   1.174   4.168   2.241 -0.0972  0.9072  0.0929
 7177SOL    HW122972   1.159   4.253   2.281  0.3724  0.4333  1.3310
 7177SOL    HW222973   1.235   4.185   2.169  1.2017  1.4163  1.2805
 7178SOL     OW22974   1.344   1.966   1.431  0.1353  0.2922  0.2113
 7178SOL    HW122975   1.252   1.974   1.455  0.2859  0.8139  0.6253
 7178SOL    HW222976   1.363   1.873   1.440 -0.5549  0.0477 -0.6511
 7179SOL     OW22977   7.603   2.917   4.063  0.1816  0.0283  0.0851
 7179SOL    HW122978   7.645   2.885   3.983 -0.4371  1.4239 -0.8274
 7179SOL    HW222979   7.627   2.852   4.129  0.6919 -1.1809 -1.2206
 7180SOL     OW22980   7.361   2.110   3.181 -0.2447  1.2024 -0.1927
 7180SOL    HW122981   7.408   2.192   3.168 -0.4430  1.5647  1.2041
 7180SOL    HW222982   7.336   2.111   3.274  0.3361 -0.7389  0.0258
 7181SOL     OW22983   6.421   2.902   6.008  0.4521 -0.4233  0.3602
 7181SOL    HW122984   6.374   2.921   6.089 -0.6506 -4.1325  0.7775
 7181SOL    HW222985   6.352   2.899   5.941  0.5404 -2.2935  0.2992
 7182SOL     OW22986   7.327   0.243   5.097  0.2411  0.0382 -0.1070
 7182SOL    HW122987   7.402   0.245   5.156 -0.1807  1.9489  0.4532
 7182SOL    HW222988   7.253   0.272   5.151 -0.6459 -0.4949 -0.9816
 7183SOL     OW22989   5.723   2.767   5.246 -0.1577  0.0700 -0.0444
 7183SOL    HW122990   5.752   2.699   5.185 -0.1719  0.5221 -0.5568
 7183SOL    HW222991   5.775   2.844   5.224 -0.4084  0.3362  0.2803
 7184SOL     OW22992   4.937   1.654   7.659  0.0064  0.3734 -0.1645
 7184SOL    HW122993   4.932   1.694   7.572 -0.1128 -0.3742 -0.5081
 7184SOL    HW222994   5.007   1.702   7.703 -0.7195  1.5491 -0.2532
 7185SOL     OW22995   0.705   7.482   7.752 -0.7801  0.3527  0.3361
 7185SOL    HW122996   0.772   7.436   7.802 -0.5837  1.5172  1.1948
 7185SOL    HW222997   0.730   7.469   7.660  0.2449  0.2212  0.6209
 7186SOL     OW22998   2.140   2.863   2.415 -0.6295 -0.3394 -0.0534
 7186SOL    HW122999   2.153   2.857   2.320 -0.8691  0.9688 -0.1776
 7186SOL    HW223000   2.227   2.885   2.449 -0.9817  1.3387 -0.1924
 7187SOL     OW23001   0.530   5.735   2.585  0.0907 -0.1460 -0.1857
 7187SOL    HW123002   0.436   5.715   2.584 -0.5141  2.0485  2.0130
 7187SOL    HW223003   0.562   5.704   2.501 -2.6400 -0.8556 -1.0751
 7188SOL     OW23004   3.855   5.202   5.174  0.0518  0.6097 -0.5209
 7188SOL    HW123005   3.760   5.189   5.180  0.4260 -2.2831  0.5278
 7188SOL    HW223006   3.890   5.115   5.156  2.5143  1.7151 -1.5019
 7189SOL     OW23007   6.763   7.888   4.397 -0.4581  0.0640 -0.3627
 7189SOL    HW123008   6.821   7.945   4.346 -1.3979  0.3133 -1.1779
 7189SOL    HW223009   6.786   7.907   4.488  1.8016 -0.9812 -0.6482
 7190SOL     OW23010   4.602   0.883  11.307  0.1919 -0.3973  0.2930
 7190SOL    HW123011   4.587   0.812  11.245 -1.4505 -0.0232  0.1969
 7190SOL    HW223012   4.663   0.942  11.262  0.7343 -1.2113 -0.0526
 7191SOL     OW23013   7.490   4.755   1.022  0.7563 -0.1405 -0.4838
 7191SOL    HW123014   7.561   4.817   1.040  0.9911 -0.5391  0.0015
 7191SOL    HW223015   7.418   4.784   1.079  0.4399  0.4063 -1.1509
 7192SOL     OW23016   4.494   0.923   2.926  0.5930  0.0953  0.2036
 7192SOL    HW123017   4.510   0.852   2.988  1.6111 -0.1743 -0.3526
 7192SOL    HW223018   4.556   0.991   2.950 -0.1636  0.6846  0.5326
 7193SOL     OW23019   0.398   5.752   5.692 -0.2204  0.3722  0.0235
 7193SOL    HW123020   0.355   5.742   5.777 -0.7713  2.4344  0.0639
 7193SOL    HW223021   0.349   5.695   5.633 -0.7261 -0.0217  0.8033
 7194SOL     OW23022   0.070   5.800   4.189 -0.7528  0.6609 -0.3564
 7194SOL    HW123023  -0.001   5.769   4.133 -0.6883 -0.6799  0.2554
 7194SOL    HW223024   0.026   5.848   4.260 -0.9155  1.2880 -0.8724
 7195SOL     OW23025   2.071   0.798   1.811 -0.0146  1.1393 -0.6351
 7195SOL    HW123026   2.016   0.862   1.856 -1.7324 -0.8292  0.2462
 7195SOL    HW223027   2.010   0.751   1.754  0.8270 -0.6947 -0.0966
 7196SOL     OW23028   7.053   6.587  10.112  0.5187  0.4172  0.2258
 7196SOL    HW123029   6.964   6.558  10.090 -0.2535 -0.0894  3.5068
 7196SOL    HW223030   7.053   6.680  10.092  0.3613 -0.1412 -2.8016
 7197SOL     OW23031   7.250   6.967   0.008  0.0324 -0.3630 -0.7678
 7197SOL    HW123032   7.224   6.978   0.100  0.9047 -0.9324 -0.4435
 7197SOL    HW223033   7.208   7.041  -0.037 -0.8236 -0.3659 -0.0062
 7198SOL     OW23034   3.573   0.277  10.420  0.0972  0.8510  0.2089
 7198SOL    HW123035   3.565   0.359  10.469  0.6379  0.7682  0.4450
 7198SOL    HW223036   3.498   0.277  10.360 -0.2652  1.2117  0.6545
 7199SOL     OW23037   3.382   2.368   2.563 -0.3143  0.0511 -0.1069
 7199SOL    HW123038   3.328   2.429   2.513 -1.3774 -0.5098  0.3209
 7199SOL    HW223039   3.410   2.417   2.640 -0.2928  0.3195 -0.2865
 7200SOL     OW23040   2.785   2.667  11.240  0.2094 -0.2085 -0.5990
 7200SOL    HW123041   2.813   2.757  11.221  0.0735 -0.4150 -1.8704
 7200SOL    HW223042   2.854   2.633  11.297  1.5373 -0.0419 -2.0270
 7201SOL     OW23043   5.256   5.737  12.219 -0.1016 -0.1257 -0.3165
 7201SOL    HW123044   5.178   5.682  12.224 -0.8409  1.0091  2.2248
 7201SOL    HW223045   5.261   5.780  12.305  1.3506  2.5158 -1.5930
 7202SOL     OW23046   5.942   1.622   1.075 -0.2034 -0.1240 -0.6221
 7202SOL    HW123047   5.967   1.670   1.153 -1.0849 -0.5962 -0.0215
 7202SOL    HW223048   5.848   1.641   1.064 -0.5739 -1.6275 -0.3839
 7203SOL     OW23049   0.220   3.841  10.216  0.0255  0.2188 -0.0865
 7203SOL    HW123050   0.272   3.900  10.161 -0.4132  0.4590 -0.2398
 7203SOL    HW223051   0.156   3.803  10.157  0.3376 -0.4582 -0.0010
 7204SOL     OW23052   2.476   7.821   5.640  0.1189  0.4065  0.4994
 7204SOL    HW123053   2.424   7.832   5.561  2.4629 -3.3304 -1.8978
 7204SOL    HW223054   2.559   7.866   5.622  0.6633 -0.4465  0.7578
 7205SOL     OW23055   6.946   5.100   5.613 -0.6904  0.4701  0.6726
 7205SOL    HW123056   7.033   5.077   5.579 -1.6539 -0.3102 -1.4335
 7205SOL    HW223057   6.957   5.101   5.708  1.1085 -1.8798  0.5880
 7206SOL     OW23058   6.895   2.241   4.444 -0.1845 -0.1224 -0.5860
 7206SOL    HW123059   6.831   2.245   4.373 -0.0869  1.4732 -0.6064
 7206SOL    HW223060   6.960   2.177   4.413 -0.5054  0.0288 -1.6164
 7207SOL     OW23061   6.017   4.849   5.042  0.1535 -0.3136 -0.6414
 7207SOL    HW123062   6.065   4.931   5.041 -0.9530  0.3729 -0.2747
 7207SOL    HW223063   5.938   4.867   4.991 -0.9121 -0.6084  0.8394
 7208SOL     OW23064   4.107   7.738   3.450 -0.2585  0.7063 -0.7829
 7208SOL    HW123065   4.185   7.794   3.454 -1.0519  1.7594  0.6127
 7208SOL    HW223066   4.131   7.661   3.502 -1.0884  2.3236  2.1794
 7209SOL     OW23067   4.474   1.942   6.618  0.1120 -0.4890  0.2387
 7209SOL    HW123068   4.430   1.954   6.534  0.1260  0.5553  0.3722
 7209SOL    HW223069   4.566   1.961   6.601  0.7149 -3.2553 -0.1793
 7210SOL     OW23070   2.893   4.646  12.033 -0.0545 -0.4311 -0.3322
 7210SOL    HW123071   2.965   4.694  12.074 -0.5147 -0.5445  0.6560
 7210SOL    HW223072   2.816   4.702  12.047 -0.3858 -0.9090 -0.2043
 7211SOL     OW23073   0.418   1.817   6.408  0.3443  0.2017 -0.6880
 7211SOL    HW123074   0.448   1.901   6.441  1.4600 -0.2574 -0.4724
 7211SOL    HW223075   0.439   1.819   6.315  1.5932 -0.3246 -0.4376
 7212SOL     OW23076   4.026   5.618   9.642 -0.3029 -0.2157 -0.1629
 7212SOL    HW123077   3.974   5.696   9.621  0.4042 -0.1325 -1.7163
 7212SOL    HW223078   4.114   5.638   9.608 -0.0906 -1.6532 -0.5144
 7213SOL     OW23079   2.310   7.294   0.951 -0.4074  0.2272 -0.2763
 7213SOL    HW123080   2.405   7.303   0.955 -0.3859 -0.4243  1.1848
 7213SOL    HW223081   2.295   7.239   0.874  0.5326 -1.1133  0.4559
 7214SOL     OW23082   1.397   2.785   7.386  0.3671  0.0370 -0.1582
 7214SOL    HW123083   1.365   2.765   7.298 -1.7224 -1.5112  0.8365
 7214SOL    HW223084   1.466   2.721   7.402 -0.6625 -1.0756  0.0155
 7215SOL     OW23085   4.918   1.089   8.731  0.7998 -0.3429 -0.0389
 7215SOL    HW123086   4.846   1.035   8.764 -0.3698  1.6840  0.9437
 7215SOL    HW223087   4.895   1.178   8.759  2.9678  0.5745 -0.9976
 7216SOL     OW23088   2.477   6.450   2.672  0.1594  0.4235 -0.2627
 7216SOL    HW123089   2.531   6.494   2.738 -0.4287  0.1138  0.4434
 7216SOL    HW223090   2.495   6.357   2.686 -3.0862  0.0263  2.3533
 7217SOL     OW23091   2.238   4.341   4.880 -0.2246  0.1001  0.3060
 7217SOL    HW123092   2.170   4.274   4.889  0.2286 -0.3656  0.3448
 7217SOL    HW223093   2.198   4.409   4.827 -0.3445 -0.6974 -0.6541
 7218SOL     OW23094   4.511   1.619   4.768  0.0862  0.0726 -0.6818
 7218SOL    HW123095   4.477   1.597   4.681 -0.0120  0.0140 -0.6280
 7218SOL    HW223096   4.555   1.703   4.755 -0.1682  0.2001 -0.7291
 7219SOL     OW23097   0.022   3.323   3.771  0.2395 -0.3594 -0.3228
 7219SOL    HW123098   0.018   3.413   3.739  1.6703 -0.5384 -1.0686
 7219SOL    HW223099  -0.061   3.311   3.818 -0.4406  0.9988 -1.1045
 7220SOL     OW23100   1.212   4.463   9.693  0.3013  0.5166  0.5274
 7220SOL    HW123101   1.168   4.406   9.631  1.4592 -1.2642  1.2798
 7220SOL    HW223102   1.152   4.469   9.768 -0.4898  1.5793 -0.1498
 7221SOL     OW23103   4.745   7.784   1.728  0.0988  0.1718  0.6103
 7221SOL    HW123104   4.669   7.805   1.673  0.4712  0.3952  0.1738
 7221SOL    HW223105   4.737   7.690   1.745  0.0019  0.0895  0.1299
 7222SOL     OW23106   4.166   2.019   7.829 -0.1572 -0.6116  0.2323
 7222SOL    HW123107   4.242   2.030   7.886 -0.8747 -0.6098  1.1973
 7222SOL    HW223108   4.202   2.029   7.740  1.0686 -1.1631  0.6397
 7223SOL     OW23109   3.801   1.170   2.464 -0.2894 -0.4681 -0.5188
 7223SOL    HW123110   3.797   1.157   2.559 -1.6334 -0.3463 -0.5353
 7223SOL    HW223111   3.894   1.182   2.445  0.0586 -1.1159  0.6948
 7224SOL     OW23112   3.181   3.004   8.008  0.1863 -0.1520 -0.4228
 7224SOL    HW123113   3.137   3.002   8.093  0.6033 -0.1683 -0.2049
 7224SOL    HW223114   3.250   3.069   8.018 -0.0546  0.1861 -0.8995
 7225SOL     OW23115   5.914   4.977   9.188 -0.3296 -0.2215  0.1133
 7225SOL    HW123116   5.838   5.026   9.218 -0.8202 -1.0652  0.2955
 7225SOL    HW223117   5.878   4.893   9.159  0.7505 -1.4769  2.1813
 7226SOL     OW23118   4.884   6.845   9.133  0.5911  0.2618 -0.2823
 7226SOL    HW123119   4.822   6.772   9.134  0.0839  0.6755 -0.6612
 7226SOL    HW223120   4.951   6.818   9.071  0.6257 -0.0550 -0.1113
 7227SOL     OW23121   0.780   6.765   8.242  0.4340 -0.2209 -0.3259
 7227SOL    HW123122   0.833   6.844   8.226 -1.8212  1.6382  0.7433
 7227SOL    HW223123   0.689   6.796   8.240 -0.7766 -3.3843 -2.8757
 7228SOL     OW23124   0.075   6.347   9.508 -0.5056  0.4375 -0.1816
 7228SOL    HW123125   0.108   6.266   9.468 -1.8491  0.0636 -0.5597
 7228SOL    HW223126  -0.015   6.326   9.534 -0.0260  0.9705  2.1700
 7229SOL     OW23127   3.988   4.628   2.967 -0.2788  0.1527 -0.5574
 7229SOL    HW123128   3.982   4.682   3.046  0.0994  0.5815 -0.8187
 7229SOL    HW223129   4.019   4.688   2.899  1.0396 -0.6065 -0.6466
 7230SOL     OW23130   6.952   0.872  12.216  0.1300  0.1792  0.2703
 7230SOL    HW123131   6.890   0.882  12.143  0.3524 -0.3732  0.0035
 7230SOL    HW223132   6.966   0.778  12.223  0.2338  0.2373  0.9305
 7231SOL     OW23133   4.542   3.976  10.548  0.3850  0.5625 -0.2764
 7231SOL    HW123134   4.578   4.011  10.630  1.0462  0.0488 -0.3371
 7231SOL    HW223135   4.478   4.041  10.520  0.4498  0.9439  0.4366
 7232SOL     OW23136   7.713   6.791   1.651 -0.1784  0.1293 -0.5806
 7232SOL    HW123137   7.618   6.796   1.638 -0.0144 -0.3468 -2.0834
 7232SOL    HW223138   7.735   6.874   1.694 -1.2883  0.1669 -0.0507
 7233SOL     OW23139   3.752   1.238   5.390  0.1215 -0.3527  0.4064
 7233SOL    HW123140   3.664   1.200   5.389  0.3793 -1.1864  3.0453
 7233SOL    HW223141   3.737   1.332   5.376 -1.2775 -0.3815  1.4914
 7234SOL     OW23142   0.354   5.613   2.301 -0.3456  0.0196 -0.7183
 7234SOL    HW123143   0.416   5.679   2.271  0.2601 -0.6751 -1.0114
 7234SOL    HW223144   0.320   5.574   2.220  1.3335 -1.9002 -0.5616
 7235SOL     OW23145   5.958   6.736  11.264  0.6124 -0.1843  0.4171
 7235SOL    HW123146   5.886   6.774  11.215 -0.0424  0.0315  1.5054
 7235SOL    HW223147   5.927   6.648  11.288  0.9594 -0.3222  0.3672
 7236SOL     OW23148   1.640   4.248   5.533 -0.0813  0.0283 -0.5842
 7236SOL    HW123149   1.650   4.343   5.545 -0.2122 -0.0184 -0.0941
 7236SOL    HW223150   1.551   4.237   5.502  0.1789  0.1283 -1.3939
 7237SOL     OW23151   4.628   0.075   8.603  0.2563  0.2464 -0.1936
 7237SOL    HW123152   4.704   0.107   8.555  1.7716 -1.8693  0.6180
 7237SOL    HW223153   4.623  -0.018   8.580 -0.6237 -0.1964  1.5966
 7238SOL     OW23154   7.258   1.069   2.793  0.0512 -0.4916 -0.7149
 7238SOL    HW123155   7.330   1.085   2.854 -0.3356  0.5409 -0.5195
 7238SOL    HW223156   7.240   1.154   2.753 -1.5212 -0.5754 -0.2471
 7239SOL     OW23157   7.274   5.380  10.294  0.6799 -0.1156  0.4067
 7239SOL    HW123158   7.247   5.439  10.364  1.4438  3.0121 -1.7218
 7239SOL    HW223159   7.192   5.343  10.261 -0.1054  1.5011  0.4288
 7240SOL     OW23160   6.256   7.431   7.173 -0.4984  0.2250  0.2939
 7240SOL    HW123161   6.307   7.441   7.253 -0.1198 -2.8493  0.5718
 7240SOL    HW223162   6.322   7.419   7.104 -0.7431 -1.9527  0.3681
 7241SOL     OW23163   0.067   0.805  11.398  0.0915  0.4114 -0.1411
 7241SOL    HW123164  -0.012   0.818  11.451  0.8509  1.5341  0.7377
 7241SOL    HW223165   0.114   0.734  11.442 -0.5529 -0.4979 -0.8576
 7242SOL     OW23166   5.123   1.060   4.059  0.2854 -0.2692  0.1865
 7242SOL    HW123167   5.059   1.008   4.107  0.0915  0.9962  1.3278
 7242SOL    HW223168   5.207   1.017   4.077  0.1630 -0.0290  1.3461
 7243SOL     OW23169   0.621   3.673   1.917  0.3658 -0.1223 -0.3996
 7243SOL    HW123170   0.709   3.671   1.878  0.8826  1.4057  0.6266
 7243SOL    HW223171   0.636   3.661   2.011 -0.3273  1.8292  0.0031
 7244SOL     OW23172   4.565   2.992   4.819 -0.4109 -0.5838  0.0787
 7244SOL    HW123173   4.524   3.039   4.747  0.3598 -0.4303 -0.2691
 7244SOL    HW223174   4.645   2.954   4.782  0.4448  0.2069  1.0484
 7245SOL     OW23175   1.805   5.381   4.709  0.1275  0.0727  0.1347
 7245SOL    HW123176   1.873   5.344   4.765  0.6213 -0.7032 -0.9499
 7245SOL    HW223177   1.777   5.461   4.754  1.2417  0.0178  0.9503
 7246SOL     OW23178   2.196   1.023  11.784 -0.1865  0.0624  0.5572
 7246SOL    HW123179   2.161   0.938  11.757  0.9387 -1.2365  2.8650
 7246SOL    HW223180   2.278   1.031  11.736 -0.8741  0.4638 -0.5912
 7247SOL     OW23181   4.560   1.310   0.465  0.2510  0.4417  0.0414
 7247SOL    HW123182   4.626   1.368   0.503 -0.3690  1.1487  0.0555
 7247SOL    HW223183   4.572   1.320   0.370  0.6720 -0.0286  0.0388
 7248SOL     OW23184   0.426   6.566   3.995 -0.3310 -0.1407 -0.0537
 7248SOL    HW123185   0.503   6.526   4.037 -0.6891 -0.9077 -0.1032
 7248SOL    HW223186   0.380   6.610   4.067 -0.1816 -0.2290  0.0970
 7249SOL     OW23187   4.266   4.945   9.361  0.2088  0.5422 -0.0760
 7249SOL    HW123188   4.188   4.945   9.305 -0.8010 -0.5090  1.2626
 7249SOL    HW223189   4.243   4.888   9.434  2.2854  0.1368  0.3224
 7250SOL     OW23190   6.694   6.681   4.904 -0.2421  0.0698  0.0588
 7250SOL    HW123191   6.638   6.655   4.831 -1.1471 -3.0679  1.6653
 7250SOL    HW223192   6.762   6.613   4.907 -0.0074  0.3348  1.8336
 7251SOL     OW23193   3.071   2.877   2.515 -0.1213  0.1048 -0.3976
 7251SOL    HW123194   3.037   2.867   2.427  0.4789  1.5516 -0.8355
 7251SOL    HW223195   3.123   2.958   2.511  1.2491 -0.6640  0.8662
 7252SOL     OW23196   4.235   2.343   4.746 -0.3425 -0.6345  0.5501
 7252SOL    HW123197   4.264   2.337   4.837  0.9852  1.5072  0.3474
 7252SOL    HW223198   4.144   2.373   4.752  0.3922  1.6529  1.2291
 7253SOL     OW23199   7.206   2.117   6.851  0.2274  0.3042 -0.5364
 7253SOL    HW123200   7.230   2.179   6.921  3.3767 -2.2203  0.8859
 7253SOL    HW223201   7.138   2.063   6.890 -0.2678  0.8522 -0.6231
 7254SOL     OW23202   5.986   2.692   0.750  0.2970 -0.1570  0.3854
 7254SOL    HW123203   6.034   2.750   0.808 -0.9926  1.4188 -0.0577
 7254SOL    HW223204   5.903   2.676   0.794  0.0722 -0.5037 -0.1474
 7255SOL     OW23205   3.761   5.289   0.987 -0.1948  0.0834 -0.6427
 7255SOL    HW123206   3.768   5.306   1.081 -0.3975  0.0511 -0.6204
 7255SOL    HW223207   3.705   5.212   0.981  0.3686 -0.3254 -0.7638
 7256SOL     OW23208   7.428   6.579   6.930  0.2987 -0.2690  0.4308
 7256SOL    HW123209   7.397   6.509   6.872 -2.7107  0.1965  1.2781
 7256SOL    HW223210   7.443   6.535   7.014  0.2567 -0.2245  0.4618
 7257SOL     OW23211   4.467   5.596   8.479  0.4721  0.3427 -0.1338
 7257SOL    HW123212   4.393   5.654   8.494  0.4487  0.4849 -0.7834
 7257SOL    HW223213   4.460   5.529   8.547  0.0953  0.6953  0.1763
 7258SOL     OW23214   7.229   1.406   1.526 -0.2765 -0.0870  0.8237
 7258SOL    HW123215   7.316   1.377   1.498 -1.0014 -1.1761 -0.4612
 7258SOL    HW223216   7.220   1.374   1.615  0.1445 -1.1776  0.4913
 7259SOL     OW23217   7.216   7.030   7.716  0.1498 -0.1362 -0.0058
 7259SOL    HW123218   7.143   7.079   7.677  0.4467 -0.2384 -0.7083
 7259SOL    HW223219   7.200   6.939   7.692 -0.4671 -0.4213  1.4075
 7260SOL     OW23220   7.695   4.202  10.977 -0.1375  0.7748  0.5075
 7260SOL    HW123221   7.623   4.148  11.011 -0.2854  0.5925 -0.0919
 7260SOL    HW223222   7.762   4.139  10.951 -0.1063  0.9051  0.2731
 7261SOL     OW23223   6.240   4.858  12.238 -0.1962  0.0765  0.4451
 7261SOL    HW123224   6.237   4.782  12.180 -1.7188  1.2300 -1.0760
 7261SOL    HW223225   6.281   4.927  12.185  0.8377  0.4621  1.6771
 7262SOL     OW23226   2.368   5.387  11.687  0.0891  0.3201 -0.4835
 7262SOL    HW123227   2.364   5.396  11.783  0.7401  0.7803 -0.4949
 7262SOL    HW223228   2.308   5.455  11.655 -0.4825 -0.1363 -0.3969
 7263SOL     OW23229   0.212   5.540   6.925  0.4234 -0.1743 -0.3802
 7263SOL    HW123230   0.228   5.447   6.938 -1.2347 -0.3487  0.8091
 7263SOL    HW223231   0.298   5.577   6.906  1.3743 -1.7038  0.7062
 7264SOL     OW23232   4.074   7.142  11.095  0.0660  0.0406  0.2570
 7264SOL    HW123233   4.037   7.182  11.174 -2.7033 -0.6159 -0.5993
 7264SOL    HW223234   4.150   7.196  11.075  0.8668  0.2351  3.3166
 7265SOL     OW23235   5.687   1.245  11.902 -0.0483  0.1490 -0.1856
 7265SOL    HW123236   5.764   1.290  11.867 -0.8379  1.2635 -0.5840
 7265SOL    HW223237   5.670   1.289  11.985 -0.8118  0.5920 -0.5640
 7266SOL     OW23238   0.542   6.523   2.059 -0.4880  0.1824 -0.5132
 7266SOL    HW123239   0.494   6.496   2.138  0.6790 -2.1502 -0.5053
 7266SOL    HW223240   0.518   6.458   1.993  2.5106 -1.1227 -0.4986
 7267SOL     OW23241   1.179   1.161   9.595  0.5045  0.6103  0.5212
 7267SOL    HW123242   1.104   1.131   9.647 -0.4910 -0.9974 -1.6666
 7267SOL    HW223243   1.191   1.252   9.621 -0.4382  0.1422  2.9149
 7268SOL     OW23244   5.420   3.751   8.381  0.1775 -0.0938 -0.0227
 7268SOL    HW123245   5.465   3.749   8.297  0.7578 -3.6489  0.1965
 7268SOL    HW223246   5.333   3.715   8.363  0.1797 -0.5505  0.7997
 7269SOL     OW23247   1.900   1.484   4.473 -0.5480 -0.2582  0.2492
 7269SOL    HW123248   1.878   1.391   4.469 -2.0367  0.0497  0.8074
 7269SOL    HW223249   1.857   1.522   4.395 -2.0582  0.3401  1.3217
 7270SOL     OW23250   3.868   7.051   7.490  0.3318 -0.1090  0.4237
 7270SOL    HW123251   3.847   7.144   7.500  2.3271  0.2731  1.5663
 7270SOL    HW223252   3.816   7.023   7.415 -0.1056  1.9874 -0.1237
 7271SOL     OW23253   3.272   6.257   8.728 -0.3927 -0.1338 -0.3509
 7271SOL    HW123254   3.184   6.240   8.761 -0.5093 -0.0333 -0.6030
 7271SOL    HW223255   3.290   6.348   8.751 -0.6005  0.0350 -0.8344
 7272SOL     OW23256   2.219   3.350   6.479 -0.4704 -0.0153  0.7176
 7272SOL    HW123257   2.202   3.433   6.522  0.8525 -0.4114  2.0937
 7272SOL    HW223258   2.300   3.318   6.519 -1.4165 -2.4072  0.9137
 7273SOL     OW23259   0.181   0.967   5.191 -0.0398 -0.0815 -0.3432
 7273SOL    HW123260   0.091   0.995   5.208 -0.4117 -0.0275 -2.1326
 7273SOL    HW223261   0.230   1.049   5.185  0.0235 -0.0858  0.1219
 7274SOL     OW23262   2.389   4.622   1.584  0.0116 -0.0886 -0.2278
 7274SOL    HW123263   2.482   4.611   1.605  0.1696  0.5122 -0.5895
 7274SOL    HW223264   2.387   4.693   1.520 -0.6649 -0.3630 -0.5232
 7275SOL     OW23265   4.086   3.715  10.009 -0.6209  0.4463  0.2119
 7275SOL    HW123266   4.119   3.743  10.094 -0.5008 -0.0651  0.3430
 7275SOL    HW223267   4.080   3.619  10.016 -0.1708  0.3539 -0.5042
 7276SOL     OW23268   4.893   0.481   6.268 -0.7032  0.0914 -0.4776
 7276SOL    HW123269   4.829   0.430   6.219 -0.6115 -0.2963 -0.2048
 7276SOL    HW223270   4.884   0.450   6.358  0.2693 -0.4038 -0.5295
 7277SOL     OW23271   5.060   4.606  12.004  0.4381  1.0940 -0.3733
 7277SOL    HW123272   5.032   4.590  11.914 -1.0259  0.0479  0.2140
 7277SOL    HW223273   4.981   4.635  12.049  0.7438  0.0017  0.9326
 7278SOL     OW23274   0.316   7.713   3.418  0.0654  0.2599 -0.4557
 7278SOL    HW123275   0.223   7.702   3.441  0.3769  0.4325  0.9361
 7278SOL    HW223276   0.354   7.759   3.492  1.2580  0.2856 -1.0656
 7279SOL     OW23277   4.955   4.788   9.897 -0.2004 -0.4072 -0.1001
 7279SOL    HW123278   4.929   4.818   9.810  1.2689 -0.7535 -0.6825
 7279SOL    HW223279   4.990   4.866   9.940 -1.3673 -0.1246  0.3908
 7280SOL     OW23280   1.494   6.984  11.744 -0.5879  0.0779 -0.4262
 7280SOL    HW123281   1.401   6.961  11.746 -0.4409 -0.5207  0.3667
 7280SOL    HW223282   1.536   6.919  11.802  0.1414  1.0985  0.2397
 7281SOL     OW23283   4.156   4.243   2.701 -0.1615  0.1263 -0.3028
 7281SOL    HW123284   4.224   4.204   2.755  0.6847  1.5184 -0.3170
 7281SOL    HW223285   4.192   4.242   2.612 -0.0323  1.0982 -0.2725
 7282SOL     OW23286   4.146   0.934   0.489 -0.0226  0.0837  0.1694
 7282SOL    HW123287   4.228   0.972   0.519 -0.1064 -0.5009  1.1798
 7282SOL    HW223288   4.089   0.937   0.566  0.1737 -2.6277  0.5101
 7283SOL     OW23289   1.246   1.695   0.438  0.0250 -0.8919 -0.8479
 7283SOL    HW123290   1.318   1.667   0.495  1.5371  0.2044 -2.1499
 7283SOL    HW223291   1.245   1.790   0.444  2.1872 -0.4430 -4.7739
 7284SOL     OW23292   3.305   1.284  10.439  0.1509 -0.2449  0.1026
 7284SOL    HW123293   3.350   1.331  10.369  0.3952 -0.5011  0.0884
 7284SOL    HW223294   3.234   1.343  10.465 -0.0575 -0.2197 -0.4852
 7285SOL     OW23295   5.173   4.178   2.819 -0.7986 -0.7075  0.0840
 7285SOL    HW123296   5.172   4.138   2.905  2.1748 -0.2766  0.4166
 7285SOL    HW223297   5.082   4.175   2.790 -1.5072 -2.9842  2.2174
 7286SOL     OW23298   4.938   4.856  11.080 -0.7248  0.1165  0.0842
 7286SOL    HW123299   4.972   4.918  11.145 -0.8173  0.5579 -0.2828
 7286SOL    HW223300   5.016   4.822  11.036 -0.7274  1.9175 -1.4850
 7287SOL     OW23301   1.457   1.028   1.562  0.1970 -0.0621  0.0713
 7287SOL    HW123302   1.516   0.966   1.520  0.6820 -0.1079  0.8155
 7287SOL    HW223303   1.433   1.089   1.491  1.7060  0.3875 -0.0980
 7288SOL     OW23304   1.015   0.830   4.208 -0.6330  0.1913  0.7346
 7288SOL    HW123305   1.032   0.914   4.166 -1.1743 -0.0734 -0.0247
 7288SOL    HW223306   0.921   0.817   4.198 -0.5974 -0.3784  1.1008
 7289SOL     OW23307   3.914   5.045   3.731 -0.2890 -0.6148  0.1614
 7289SOL    HW123308   3.999   5.007   3.712 -0.5704 -0.7160 -0.9401
 7289SOL    HW223309   3.867   4.976   3.779 -0.2359 -1.0727 -0.4332
 7290SOL     OW23310   4.662   7.147   0.311  0.2661  0.2647 -0.2661
 7290SOL    HW123311   4.747   7.190   0.322 -0.2994  0.9624  1.9113
 7290SOL    HW223312   4.605   7.215   0.273  0.1264  0.5293  0.4010
 7291SOL     OW23313   5.304   7.790  11.319  0.0784  0.3282 -0.5768
 7291SOL    HW123314   5.220   7.747  11.306 -0.8070  1.9180 -0.4605
 7291SOL    HW223315   5.348   7.782  11.234 -0.2007 -0.4950 -0.6490
 7292SOL     OW23316   7.072   5.877   5.051  0.2583  0.4372 -0.0100
 7292SOL    HW123317   7.113   5.949   5.098  1.1689  0.2491 -0.5043
 7292SOL    HW223318   6.981   5.878   5.081  0.4652  1.2517  0.6237
 7293SOL     OW23319   1.956   4.402   6.942  0.0942 -0.0016 -0.1015
 7293SOL    HW123320   1.882   4.341   6.931  0.9170 -0.7494 -2.0234
 7293SOL    HW223321   2.023   4.351   6.987  1.3178 -1.1045 -2.9657
 7294SOL     OW23322   7.058   3.321   0.968 -0.2175  0.1513 -0.2591
 7294SOL    HW123323   7.130   3.309   0.906 -0.6216 -1.3964 -0.4907
 7294SOL    HW223324   7.006   3.241   0.959  0.2838 -0.6832  2.8124
 7295SOL     OW23325   6.382   4.789   5.096  0.3528 -0.2351 -0.9955
 7295SOL    HW123326   6.321   4.804   5.023 -0.0740 -0.2251 -0.6417
 7295SOL    HW223327   6.327   4.754   5.166  0.7665 -0.2697 -0.6848
 7296SOL     OW23328   6.248   3.679  11.218 -0.4792  0.3566 -0.0792
 7296SOL    HW123329   6.218   3.768  11.238 -2.5476 -0.0574 -1.0422
 7296SOL    HW223330   6.311   3.659  11.287  0.0605  2.5548  0.1526
 7297SOL     OW23331   2.830   4.500   6.132  0.0190  0.0188 -0.2070
 7297SOL    HW123332   2.903   4.537   6.181 -0.2819  0.4847 -0.1073
 7297SOL    HW223333   2.832   4.546   6.048 -0.9110  0.9325  0.2557
 7298SOL     OW23334   6.459   5.170   1.587 -0.0818 -0.3078  0.3483
 7298SOL    HW123335   6.546   5.206   1.572 -1.4911  3.4577  0.0515
 7298SOL    HW223336   6.442   5.114   1.511  2.1272 -1.4299  0.6094
 7299SOL     OW23337   3.850   3.691  12.426  0.0653 -0.4366  0.0817
 7299SOL    HW123338   3.794   3.721  12.355  0.4666  1.5347  0.5522
 7299SOL    HW223339   3.794   3.695  12.504  0.2365 -0.5584  0.2122
 7300SOL     OW23340   0.051   3.638   0.100  0.5002 -0.2961 -0.7605
 7300SOL    HW123341  -0.034   3.665   0.066  1.5874 -0.4146 -3.9273
 7300SOL    HW223342   0.103   3.718   0.101  0.9443 -0.5784 -0.8270
 7301SOL     OW23343   3.120   7.091   2.543 -0.1978  0.1972  0.6394
 7301SOL    HW123344   3.186   7.023   2.555  1.0853  1.0343 -1.1474
 7301SOL    HW223345   3.149   7.163   2.599 -0.3932  0.0553  0.9270
 7302SOL     OW23346   7.034   2.539  10.007 -0.0769  1.3790  0.0284
 7302SOL    HW123347   6.944   2.571  10.004 -0.0996  1.2893 -0.2784
 7302SOL    HW223348   7.076   2.575   9.929 -0.2354  0.2966 -0.5848
 7303SOL     OW23349   1.524   0.140   3.632  0.5996  0.5967 -0.0154
 7303SOL    HW123350   1.598   0.177   3.681  0.4114  3.3012 -1.5814
 7303SOL    HW223351   1.564   0.100   3.555  0.5172  1.0471 -0.2925
 7304SOL     OW23352   0.821   3.285  11.379 -0.0573  0.0419  0.6303
 7304SOL    HW123353   0.812   3.379  11.363  0.5152 -0.1513 -0.9985
 7304SOL    HW223354   0.842   3.248  11.293  2.7438 -1.2059  1.7249
 7305SOL     OW23355   6.733   3.779  11.397  0.0534  0.0975 -0.4477
 7305SOL    HW123356   6.652   3.791  11.446  0.0868  0.2501 -0.4293
 7305SOL    HW223357   6.707   3.735  11.316 -0.0466  0.1495 -0.4431
 7306SOL     OW23358   2.709   1.995   1.705 -0.3341  0.0829 -0.2798
 7306SOL    HW123359   2.775   2.042   1.755 -1.6246  0.9114  0.6874
 7306SOL    HW223360   2.683   1.922   1.762 -0.0403 -0.4383 -0.7951
 7307SOL     OW23361   7.050   3.725   1.732  0.6290 -0.2419  0.1436
 7307SOL    HW123362   6.962   3.706   1.701  0.4316 -3.5672  2.3236
 7307SOL    HW223363   7.037   3.779   1.810  0.6542  0.3760 -0.2662
 7308SOL     OW23364   3.737   0.787  10.057  0.3498  0.6429 -0.1465
 7308SOL    HW123365   3.814   0.837  10.033  1.1433  0.1246  1.1883
 7308SOL    HW223366   3.724   0.807  10.150 -1.6662  1.4055 -0.5334
 7309SOL     OW23367   7.810   2.893   7.289 -0.0802 -0.3565 -0.0676
 7309SOL    HW123368   7.736   2.944   7.256  0.2812 -0.1851 -0.6235
 7309SOL    HW223369   7.779   2.802   7.289  0.1620 -0.4637 -1.6304
 7310SOL     OW23370   0.106   2.190  11.717 -0.0791 -0.4621 -0.3933
 7310SOL    HW123371   0.060   2.235  11.788  1.2359 -0.3827  0.4302
 7310SOL    HW223372   0.117   2.100  11.747 -0.7193 -0.7938 -1.0969
 7311SOL     OW23373   3.664   6.074   4.908  0.2891 -0.4530 -0.2340
 7311SOL    HW123374   3.704   6.019   4.841  3.1430  0.5578  0.4938
 7311SOL    HW223375   3.604   6.131   4.860 -0.9555 -2.5540 -1.2928
 7312SOL     OW23376   2.424   1.478   5.185 -0.7323  0.2137 -0.0480
 7312SOL    HW123377   2.350   1.532   5.213  0.0608  2.4300 -1.9464
 7312SOL    HW223378   2.501   1.526   5.213  0.0571 -1.2558  0.4307
 7313SOL     OW23379   3.700   4.125   2.446  0.5209 -0.1625 -0.4441
 7313SOL    HW123380   3.629   4.187   2.461 -0.2294 -0.8929 -0.9081
 7313SOL    HW223381   3.772   4.179   2.412 -0.4377  0.3314 -1.7746
 7314SOL     OW23382   6.861   2.331   9.671 -0.4050  0.4776 -0.7158
 7314SOL    HW123383   6.884   2.411   9.624  0.3861 -0.0793 -1.3005
 7314SOL    HW223384   6.801   2.285   9.611 -0.2652  0.2815 -0.7046
 7315SOL     OW23385   7.132   2.721   0.458  0.0815 -0.3159  0.8735
 7315SOL    HW123386   7.200   2.690   0.397  0.1947 -1.2837  1.4636
 7315SOL    HW223387   7.177   2.784   0.514  0.4872 -0.8831  1.2004
 7316SOL     OW23388   4.347   2.348  11.613 -0.9111 -0.5196 -0.1254
 7316SOL    HW123389   4.402   2.408  11.662 -0.2489 -1.8928  0.8838
 7316SOL    HW223390   4.343   2.385  11.525 -0.3774  0.8764  0.4183
 7317SOL     OW23391   6.770   3.317   1.727  0.2876  0.0967 -0.5366
 7317SOL    HW123392   6.702   3.287   1.787  1.4978 -0.3306  0.6714
 7317SOL    HW223393   6.735   3.399   1.690 -0.1673  0.8145  1.3821
 7318SOL     OW23394   0.154   2.016   0.781 -0.2005 -0.8234  0.5653
 7318SOL    HW123395   0.060   1.999   0.795 -0.0529 -1.6218  0.6223
 7318SOL    HW223396   0.193   2.007   0.867 -0.5212  2.9346  1.2864
 7319SOL     OW23397   4.036   3.267  10.574  0.3214 -0.2811  0.3520
 7319SOL    HW123398   3.990   3.326  10.634 -2.6080 -0.6430 -1.3429
 7319SOL    HW223399   4.058   3.322  10.499 -0.5209 -0.8359 -0.3234
 7320SOL     OW23400   5.328   2.887   0.234  0.4997  0.1772  0.0383
 7320SOL    HW123401   5.314   2.954   0.167  0.2681  1.0395  0.9257
 7320SOL    HW223402   5.245   2.841   0.241 -0.0428  1.2696  0.9852
 7321SOL     OW23403   3.594   2.039   9.371  0.0870 -0.4426 -0.2548
 7321SOL    HW123404   3.534   2.044   9.445  0.1611 -1.6970 -0.1063
 7321SOL    HW223405   3.654   1.968   9.392  0.0773 -0.8565 -1.5325
 7322SOL     OW23406   7.146   2.466   1.513  0.6738 -0.2999  0.3771
 7322SOL    HW123407   7.157   2.372   1.507  2.2072 -0.4491  3.3122
 7322SOL    HW223408   7.074   2.478   1.575  0.8516  0.4338  0.4517
 7323SOL     OW23409   2.436   4.671   6.375  0.2203  0.0857 -0.2634
 7323SOL    HW123410   2.422   4.698   6.465 -0.4527 -0.2406 -0.2657
 7323SOL    HW223411   2.521   4.709   6.351  0.5317 -0.0604  0.5914
 7324SOL     OW23412   0.059   7.821   4.031  0.2252 -0.2008 -0.1994
 7324SOL    HW123413   0.144   7.864   4.028  0.4076 -0.2342  2.1775
 7324SOL    HW223414  -0.002   7.891   4.056 -0.1883 -0.4912 -0.3857
 7325SOL     OW23415   1.278   7.111   6.939  0.0234  0.4976 -0.4500
 7325SOL    HW123416   1.284   7.196   6.981  1.6842  0.9743 -1.5815
 7325SOL    HW223417   1.340   7.115   6.867  2.3012 -2.6566  1.1293
 7326SOL     OW23418   4.933   0.659   3.185  0.2715  0.3008 -0.7699
 7326SOL    HW123419   5.017   0.633   3.223 -0.8381 -0.4040  1.3602
 7326SOL    HW223420   4.867   0.611   3.236 -1.4797  1.3647 -1.9061
 7327SOL     OW23421   5.834   0.059   7.004  0.1838 -0.6309  0.7649
 7327SOL    HW123422   5.883  -0.016   6.970 -0.4468 -0.6510 -0.1369
 7327SOL    HW223423   5.768   0.020   7.062 -0.6453 -0.8515 -0.3071
 7328SOL     OW23424   3.038   6.719   4.030  0.2441 -0.2477  0.4421
 7328SOL    HW123425   3.003   6.786   4.089 -0.6637  0.2803 -0.6421
 7328SOL    HW223426   3.131   6.713   4.052  0.4928  1.8513  0.1234
 7329SOL     OW23427   5.028   2.732   1.534 -0.0507  0.2896  0.4897
 7329SOL    HW123428   4.998   2.642   1.521 -0.0160  0.2949  0.3734
 7329SOL    HW223429   5.087   2.727   1.609 -0.4205  0.2965  0.7865
 7330SOL     OW23430   3.024   0.119   7.369  1.1709 -0.3431  0.1116
 7330SOL    HW123431   3.094   0.183   7.361  1.2274 -0.5866 -1.9659
 7330SOL    HW223432   2.944   0.170   7.356  1.1245 -0.4434  0.0016
 7331SOL     OW23433   5.921   5.978   9.520 -0.4381  0.0838  0.6702
 7331SOL    HW123434   5.862   5.908   9.492  0.8848 -0.0033 -2.2912
 7331SOL    HW223435   5.878   6.059   9.490 -0.1014  0.2019  0.5024
 7332SOL     OW23436   6.709   5.348  10.719 -0.2529  0.5967  0.3188
 7332SOL    HW123437   6.633   5.406  10.721 -1.0693 -0.4777  0.8137
 7332SOL    HW223438   6.770   5.388  10.781 -1.6156 -0.1368  2.2197
 7333SOL     OW23439   5.604   7.124   0.516  0.1014  0.0015  0.0405
 7333SOL    HW123440   5.657   7.201   0.497  0.2757  0.5398  2.4148
 7333SOL    HW223441   5.666   7.060   0.550 -0.5721  0.3290  2.0161
 7334SOL     OW23442   7.120   6.393   3.645 -0.2392 -0.9729 -0.3641
 7334SOL    HW123443   7.135   6.321   3.707 -1.9316 -1.4332 -0.4490
 7334SOL    HW223444   7.075   6.352   3.571 -0.7517  0.0833 -0.6529
 7335SOL     OW23445   3.950   1.760   8.914 -0.4221 -0.5262  0.0022
 7335SOL    HW123446   3.880   1.805   8.867 -0.2232  0.0208  0.2279
 7335SOL    HW223447   4.030   1.796   8.878 -0.2504  1.0911  1.8417
 7336SOL     OW23448   0.807   0.277   4.475 -0.0943 -0.2607  0.1543
 7336SOL    HW123449   0.778   0.185   4.473  0.1342 -0.3256 -0.9917
 7336SOL    HW223450   0.825   0.298   4.383 -1.4093  1.3348  0.2011
 7337SOL     OW23451   5.019   7.325   2.299  0.6942  0.2638  0.1931
 7337SOL    HW123452   4.925   7.311   2.283  0.5775  1.3324 -0.1506
 7337SOL    HW223453   5.025   7.417   2.327  1.5516 -0.0307  1.0158
 7338SOL     OW23454   1.903   4.896   1.906  0.3163  0.1928 -0.0365
 7338SOL    HW123455   1.907   4.913   1.812  1.0213  0.6734  0.0719
 7338SOL    HW223456   1.915   4.802   1.914 -0.5060  0.0441 -0.4677
 7339SOL     OW23457   4.319   6.914   7.452 -0.3443  0.2141  0.1347
 7339SOL    HW123458   4.248   6.967   7.414  0.5375  0.5815 -1.0507
 7339SOL    HW223459   4.322   6.940   7.544  0.7169  3.0040 -0.6034
 7340SOL     OW23460   0.719   4.108   3.615  0.0006 -0.1588  0.2855
 7340SOL    HW123461   0.691   4.073   3.530  0.6574  1.5038 -0.6706
 7340SOL    HW223462   0.641   4.106   3.669 -0.3794 -1.4587 -0.2529
 7341SOL     OW23463   0.181   6.675   6.736  0.7407 -0.1079 -0.4218
 7341SOL    HW123464   0.117   6.606   6.719 -0.2570  0.4356  0.9263
 7341SOL    HW223465   0.213   6.658   6.824  0.9030  0.8088 -0.2864
 7342SOL     OW23466   1.626   6.477  12.206 -0.3929 -0.3143 -0.3984
 7342SOL    HW123467   1.707   6.506  12.164  0.7468 -0.4295  1.5768
 7342SOL    HW223468   1.631   6.382  12.204  1.5881 -0.4768  3.1120
 7343SOL     OW23469   5.838   3.618   0.877 -0.4140 -0.1507 -0.2753
 7343SOL    HW123470   5.924   3.621   0.834 -0.6972  0.7551 -0.7966
 7343SOL    HW223471   5.778   3.654   0.812 -1.0812 -0.1351  0.3454
 7344SOL     OW23472   0.367   5.390   8.159 -0.1612  0.0372  0.0963
 7344SOL    HW123473   0.325   5.326   8.216 -1.2139 -0.4601 -1.1812
 7344SOL    HW223474   0.395   5.339   8.082  0.2633  0.8617 -0.3160
 7345SOL     OW23475   1.489   1.771   8.077 -0.2993 -1.2073  0.3907
 7345SOL    HW123476   1.471   1.854   8.034 -1.4363 -0.9791  1.2592
 7345SOL    HW223477   1.584   1.767   8.083 -0.2085 -0.3002 -0.2900
 7346SOL     OW23478   1.531   2.404   6.306 -0.1244 -0.1984  0.2200
 7346SOL    HW123479   1.615   2.418   6.350 -0.3101  0.0211  0.5107
 7346SOL    HW223480   1.541   2.319   6.262  0.7796  0.5055 -0.9986
 7347SOL     OW23481   3.930   5.992  12.278  0.4846  0.2481  0.2532
 7347SOL    HW123482   3.950   6.056  12.346  0.0021  0.3493  0.3052
 7347SOL    HW223483   3.835   5.982  12.281  0.5597 -0.5274  0.2897
 7348SOL     OW23484   6.633   0.646  10.609  0.0606 -0.1268 -0.4973
 7348SOL    HW123485   6.563   0.711  10.613 -0.4288 -0.6932  0.5495
 7348SOL    HW223486   6.713   0.695  10.626 -0.5189 -0.0869  2.6235
 7349SOL     OW23487   2.186   1.976  12.346  0.1644  0.2426 -0.1209
 7349SOL    HW123488   2.162   1.896  12.300  0.6343  1.2643 -2.2737
 7349SOL    HW223489   2.176   2.045  12.281  1.2338  1.7428  1.2271
 7350SOL     OW23490   7.430   4.842   7.401  0.1685 -0.1600 -0.0931
 7350SOL    HW123491   7.373   4.778   7.442 -0.9229  1.1904  0.6001
 7350SOL    HW223492   7.395   4.854   7.313  1.2624 -1.5432 -0.7561
 7351SOL     OW23493   5.816   7.929   9.160 -0.0521 -0.3705 -0.2229
 7351SOL    HW123494   5.784   8.001   9.214 -1.8419 -1.7088  0.5848
 7351SOL    HW223495   5.738   7.885   9.129  0.9647 -0.5547 -2.7487
 7352SOL     OW23496   7.842   6.924  12.337 -0.0718 -0.4363 -0.4610
 7352SOL    HW123497   7.844   7.012  12.374  1.1367  0.3348 -2.2319
 7352SOL    HW223498   7.806   6.935  12.249 -0.7274 -1.8570 -0.4056
 7353SOL     OW23499   5.374   2.540   9.922 -0.0995 -0.0813 -0.4475
 7353SOL    HW123500   5.315   2.521   9.994 -0.6807  0.6655 -0.7212
 7353SOL    HW223501   5.461   2.546   9.962 -0.2454 -0.8390  0.0021
 7354SOL     OW23502   1.099   3.267   8.551 -0.0438  0.3016 -0.3113
 7354SOL    HW123503   1.134   3.314   8.627  2.5043  0.1558 -1.2813
 7354SOL    HW223504   1.050   3.334   8.503 -0.9743  0.5952  0.9888
 7355SOL     OW23505   7.674   7.731   5.155  0.0118  0.2786  0.8349
 7355SOL    HW123506   7.616   7.794   5.112  0.1708  0.2446  0.5728
 7355SOL    HW223507   7.689   7.663   5.090  0.4391  0.3448  0.8630
 7356SOL     OW23508   1.454   6.118   1.793  0.1490 -0.3260  0.1467
 7356SOL    HW123509   1.375   6.069   1.817  0.6439 -0.7145  1.0266
 7356SOL    HW223510   1.426   6.174   1.721 -0.7007 -1.1190 -0.1592
 7357SOL     OW23511   4.709   2.543   8.182 -0.1587  0.0413  0.1548
 7357SOL    HW123512   4.763   2.464   8.175 -1.1141 -0.6512  0.4715
 7357SOL    HW223513   4.733   2.595   8.105 -1.3071 -1.6899 -1.4473
 7358SOL     OW23514   0.122   7.604   2.060 -0.4247 -0.3301 -0.8199
 7358SOL    HW123515   0.041   7.629   2.015 -0.6051  1.6610  0.4988
 7358SOL    HW223516   0.092   7.569   2.144  0.0315 -1.7656 -1.2127
 7359SOL     OW23517   0.758   6.297   7.323  0.3152  0.2488 -0.1603
 7359SOL    HW123518   0.803   6.213   7.316 -0.0266  0.1552 -1.3959
 7359SOL    HW223519   0.697   6.286   7.395  1.0818 -0.1748  0.4439
 7360SOL     OW23520   5.475   3.603   9.038 -0.3215 -0.2210  0.4753
 7360SOL    HW123521   5.557   3.605   8.987 -0.6149 -1.0239 -0.0397
 7360SOL    HW223522   5.410   3.642   8.980 -1.1305 -3.0377 -0.6910
 7361SOL     OW23523   2.608   4.369   5.443  0.1442  0.7214 -0.4341
 7361SOL    HW123524   2.549   4.432   5.485 -0.0019 -0.2693  0.9435
 7361SOL    HW223525   2.694   4.389   5.479  0.2372  0.6850 -0.6410
 7362SOL     OW23526   0.617   6.436   1.486 -0.4174 -0.2918  0.0565
 7362SOL    HW123527   0.687   6.470   1.430 -0.1700 -1.8682 -0.6546
 7362SOL    HW223528   0.621   6.489   1.565  1.1159  0.1061 -0.2569
 7363SOL     OW23529   1.198   5.457   7.024  0.2385 -0.0774  0.0106
 7363SOL    HW123530   1.163   5.378   6.982  0.5542  0.4076 -1.1892
 7363SOL    HW223531   1.216   5.517   6.952  0.1200  1.0590  0.8957
 7364SOL     OW23532   4.079   6.663   1.519  0.5755  0.0788  0.1536
 7364SOL    HW123533   4.119   6.739   1.477 -1.3505  0.7992 -0.4828
 7364SOL    HW223534   4.039   6.698   1.599 -0.7237 -0.1495 -0.3781
 7365SOL     OW23535   5.942   3.920   6.850  0.9387 -0.3776 -0.2764
 7365SOL    HW123536   6.034   3.928   6.874  1.2025 -0.8402 -1.0903
 7365SOL    HW223537   5.943   3.877   6.765 -0.0534 -0.9636 -0.0176
 7366SOL     OW23538   2.290   7.788   6.829  0.0890 -0.0854  0.4612
 7366SOL    HW123539   2.296   7.880   6.854  0.7051 -0.1981  0.7389
 7366SOL    HW223540   2.352   7.780   6.756 -1.6998  0.2513 -1.1980
 7367SOL     OW23541   5.753   3.258   1.400 -0.0816 -0.1623 -0.0865
 7367SOL    HW123542   5.738   3.164   1.406 -1.7379  0.0528 -0.5225
 7367SOL    HW223543   5.723   3.293   1.483  1.1134 -0.0550  0.3269
 7368SOL     OW23544   5.000   3.914   3.959 -0.7694  0.1746  0.1630
 7368SOL    HW123545   4.908   3.900   3.939 -0.5232 -0.6788 -0.4258
 7368SOL    HW223546   5.008   3.891   4.051 -1.2651  0.8976  0.3961
 7369SOL     OW23547   7.913   2.998   1.824  0.0104  0.1861  0.0531
 7369SOL    HW123548   7.832   2.952   1.847  0.3602 -0.5996 -0.2671
 7369SOL    HW223549   7.888   3.054   1.750  0.0604 -1.0786 -0.9525
 7370SOL     OW23550   7.509   6.665   6.585  0.5361  0.6278 -0.3549
 7370SOL    HW123551   7.527   6.602   6.515  1.7176  1.1139 -0.5180
 7370SOL    HW223552   7.551   6.627   6.662 -0.6931  0.1328  0.0956
 7371SOL     OW23553   6.651   6.759   1.243 -0.0549 -0.9711  0.3650
 7371SOL    HW123554   6.579   6.816   1.272  1.1639  0.0521  1.4943
 7371SOL    HW223555   6.727   6.817   1.236  0.5952 -1.9253 -1.2911
 7372SOL     OW23556   6.287   6.005   6.506 -0.1511  0.1272 -0.1278
 7372SOL    HW123557   6.249   5.918   6.496 -2.5633  1.0849  0.0946
 7372SOL    HW223558   6.282   6.022   6.600  1.6580 -0.0273  0.0270
 7373SOL     OW23559   7.897   5.318   9.630  0.2118  0.0731  0.3707
 7373SOL    HW123560   7.983   5.276   9.633 -0.2562 -0.9799 -0.4921
 7373SOL    HW223561   7.842   5.258   9.580 -0.4143  1.8264 -1.1836
 7374SOL     OW23562   0.926   6.061   4.183 -0.7135 -0.6636  0.1826
 7374SOL    HW123563   0.966   6.148   4.188  0.0763 -1.0170  0.0429
 7374SOL    HW223564   0.892   6.056   4.094  0.9224 -1.2177 -0.4361
 7375SOL     OW23565   0.348   5.634  12.028  0.0470  0.3018  0.1115
 7375SOL    HW123566   0.347   5.580  12.107  1.6510 -0.5663 -0.4141
 7375SOL    HW223567   0.302   5.581  11.962  1.2506 -0.2887 -0.2890
 7376SOL     OW23568   5.194   0.991   1.501 -0.4578 -0.2695  0.3605
 7376SOL    HW123569   5.123   0.927   1.501  1.2348 -2.2724 -1.0824
 7376SOL    HW223570   5.205   1.015   1.409  0.2210  0.6165  0.6586
 7377SOL     OW23571   4.373   4.097   0.389 -0.3471  0.4578 -0.2070
 7377SOL    HW123572   4.331   4.147   0.319 -4.1779 -1.3935  0.5015
 7377SOL    HW223573   4.349   4.143   0.469  0.6258  0.3709  0.1422
 7378SOL     OW23574   1.289   4.966   7.264  0.2879  0.0351 -0.6291
 7378SOL    HW123575   1.221   4.909   7.302  0.5036 -0.4613 -0.9872
 7378SOL    HW223576   1.364   4.956   7.323 -0.1438  1.0818  0.1370
 7379SOL     OW23577   5.405   3.576   7.514  1.0447 -0.0409  0.0543
 7379SOL    HW123578   5.418   3.573   7.419  0.1742  0.0081 -0.0707
 7379SOL    HW223579   5.378   3.666   7.532 -0.3906 -0.4611  0.1210
 7380SOL     OW23580   0.670   3.632   2.790 -0.0405  0.0817  0.0770
 7380SOL    HW123581   0.747   3.606   2.840 -0.0693  2.2480  1.3797
 7380SOL    HW223582   0.704   3.681   2.716 -0.1390  0.4001  0.2418
 7381SOL     OW23583   2.044   5.149  12.100 -0.2948  0.5372 -0.4460
 7381SOL    HW123584   1.981   5.103  12.044 -0.8582  0.0590  0.5421
 7381SOL    HW223585   2.130   5.116  12.073 -0.2992  2.2143 -2.7629
 7382SOL     OW23586   2.362   7.286   9.318 -0.1819  0.0991 -0.3872
 7382SOL    HW123587   2.439   7.230   9.313  0.3191  0.8693 -1.8939
 7382SOL    HW223588   2.342   7.291   9.412  0.2419 -1.8847 -0.1561
 7383SOL     OW23589   5.206   7.890   6.049 -0.0010 -0.7812  0.1362
 7383SOL    HW123590   5.161   7.836   6.115  0.9411 -1.7249  0.0508
 7383SOL    HW223591   5.283   7.838   6.025  2.3992  1.6485  1.9062
 7384SOL     OW23592   0.824   1.858   9.675  0.1914  0.2223 -0.3540
 7384SOL    HW123593   0.839   1.929   9.612  1.6464  0.3316  0.0930
 7384SOL    HW223594   0.731   1.839   9.667  0.1983  0.7254 -2.0307
 7385SOL     OW23595   3.272   3.092   9.707  0.2182 -0.7476 -0.0146
 7385SOL    HW123596   3.213   3.146   9.655  0.9792 -1.0128 -1.1745
 7385SOL    HW223597   3.312   3.154   9.768 -0.1738 -0.3102 -0.1935
 7386SOL     OW23598   0.225   2.226   8.300  0.2189 -0.0393  0.2672
 7386SOL    HW123599   0.165   2.191   8.366  0.2847 -0.3003  0.1886
 7386SOL    HW223600   0.220   2.321   8.312 -0.3628 -0.0496  0.1286
 7387SOL     OW23601   0.487   2.988   4.723  0.7758 -0.1123  0.1603
 7387SOL    HW123602   0.475   3.082   4.710 -1.3353 -0.3479  0.0929
 7387SOL    HW223603   0.448   2.948   4.646  0.2488 -1.0897  0.9093
 7388SOL     OW23604   3.683   5.644   8.672 -0.4342 -0.0356  0.2287
 7388SOL    HW123605   3.613   5.636   8.608 -0.4087 -1.7462  0.3590
 7388SOL    HW223606   3.763   5.655   8.620 -0.5397 -0.3398  0.0018
 7389SOL     OW23607   1.905   6.682  11.583 -0.4395 -0.0201 -0.4819
 7389SOL    HW123608   1.987   6.693  11.629  0.5889  0.4519 -2.3121
 7389SOL    HW223609   1.846   6.641  11.646  1.5937 -1.6161  0.4636
 7390SOL     OW23610   1.375   2.280   4.120 -0.5448 -0.2686  0.1507
 7390SOL    HW123611   1.356   2.233   4.201 -0.7007 -0.9266 -0.2610
 7390SOL    HW223612   1.294   2.326   4.099 -0.7558 -0.7264 -0.0461
 7391SOL     OW23613   7.848   5.394   2.014 -0.3702 -1.0039 -0.0937
 7391SOL    HW123614   7.768   5.353   2.048 -1.5052 -0.6216 -2.1557
 7391SOL    HW223615   7.909   5.322   2.000 -1.3578 -1.6745 -1.0550
 7392SOL     OW23616   7.716   4.664   2.178  0.2743 -0.4499 -0.2563
 7392SOL    HW123617   7.780   4.672   2.108  3.2799  3.1970  2.4690
 7392SOL    HW223618   7.679   4.751   2.188 -0.0129 -0.7725  2.5568
 7393SOL     OW23619   2.165   0.491   6.260  0.5841  0.3408  0.5696
 7393SOL    HW123620   2.117   0.509   6.341 -0.9947 -0.4335 -0.1429
 7393SOL    HW223621   2.106   0.522   6.191 -0.1254 -2.9836 -0.4752
 7394SOL     OW23622   6.174   0.549  11.617 -0.4777  0.6857 -0.6346
 7394SOL    HW123623   6.253   0.583  11.576 -0.2708 -0.8513 -1.5707
 7394SOL    HW223624   6.173   0.589  11.704  0.9754  1.2421 -0.8517
 7395SOL     OW23625   1.896   7.827   9.942 -0.1511 -0.4042  0.3280
 7395SOL    HW123626   1.937   7.900   9.894 -0.1562 -0.6150 -0.0032
 7395SOL    HW223627   1.856   7.774   9.873 -0.5221 -0.4884  0.6076
 7396SOL     OW23628   0.706   0.244   0.322 -0.1755 -0.4477  0.0081
 7396SOL    HW123629   0.631   0.193   0.353  0.2887 -1.1105  0.0831
 7396SOL    HW223630   0.689   0.258   0.229 -0.5879 -0.2334  0.1148
 7397SOL     OW23631   0.172   3.168   5.874 -0.0570 -0.8078  0.6738
 7397SOL    HW123632   0.226   3.246   5.858 -1.3236 -0.2208 -1.0836
 7397SOL    HW223633   0.236   3.097   5.885  1.0972  0.0153 -0.3904
 7398SOL     OW23634   7.040   6.361   6.236  0.0650  0.4626  0.4281
 7398SOL    HW123635   7.112   6.424   6.238 -0.4631  1.0764  0.3781
 7398SOL    HW223636   7.036   6.327   6.326  0.8942 -0.1369  0.2505
 7399SOL     OW23637   1.490   0.746   4.388 -0.4065  0.0802 -0.5603
 7399SOL    HW123638   1.456   0.681   4.326 -0.9552 -0.7659  0.5883
 7399SOL    HW223639   1.451   0.828   4.359 -1.2222 -0.4139 -0.9324
 7400SOL     OW23640   0.870   6.969   1.175  0.2282 -0.3919  0.0531
 7400SOL    HW123641   0.925   7.011   1.240  1.1183  0.3392 -1.1267
 7400SOL    HW223642   0.856   6.880   1.209  0.2237  0.1363  1.4738
 7401SOL     OW23643   2.802   0.325   1.750 -0.1276 -0.3619 -0.0270
 7401SOL    HW123644   2.748   0.292   1.678  1.9597 -1.4050 -1.2000
 7401SOL    HW223645   2.892   0.310   1.722  0.8471  1.8748  1.5883
 7402SOL     OW23646   4.549   3.286   6.670 -0.0874 -0.2151  0.0943
 7402SOL    HW123647   4.604   3.260   6.744  0.2446  0.3055  0.0394
 7402SOL    HW223648   4.513   3.371   6.695  2.4856  1.5103 -1.5513
 7403SOL     OW23649   2.546   2.617   7.838  1.0681  0.5430 -0.7329
 7403SOL    HW123650   2.593   2.557   7.780  1.0013  0.2854 -0.5249
 7403SOL    HW223651   2.582   2.703   7.819  2.3381  0.2250  0.1334
 7404SOL     OW23652   4.615   6.062  10.988 -0.1930 -0.2339  0.5933
 7404SOL    HW123653   4.549   6.113  10.941  0.7706  0.8920  0.4324
 7404SOL    HW223654   4.618   6.101  11.075 -0.3743 -0.8761  0.8954
 7405SOL     OW23655   0.377   3.217   7.429 -0.3477  0.0566  0.3379
 7405SOL    HW123656   0.417   3.303   7.416 -0.4565  0.0235 -0.2608
 7405SOL    HW223657   0.418   3.161   7.363 -0.7213 -0.1980  0.3154
 7406SOL     OW23658   3.169   3.409   3.012 -0.4438  0.0602 -0.0110
 7406SOL    HW123659   3.163   3.431   2.919  0.3385  2.0653  0.3712
 7406SOL    HW223660   3.249   3.356   3.018 -0.7067 -0.4083 -0.5167
 7407SOL     OW23661   3.334   1.342   6.106  0.1754 -0.1010  0.3863
 7407SOL    HW123662   3.306   1.267   6.052  2.1702 -0.6837  0.0884
 7407SOL    HW223663   3.315   1.315   6.196 -1.7511  0.2460  0.1188
 7408SOL     OW23664   7.576   7.821   5.393 -0.6262  0.9365 -0.4247
 7408SOL    HW123665   7.513   7.762   5.434  2.0029 -0.7242  1.5817
 7408SOL    HW223666   7.599   7.778   5.311 -0.0015  0.0255  0.2151
 7409SOL     OW23667   6.496   5.550   1.151 -0.1090 -0.8064  0.1639
 7409SOL    HW123668   6.495   5.613   1.223 -0.7458 -0.0916 -0.4557
 7409SOL    HW223669   6.407   5.553   1.116  0.4484 -0.4459 -1.2660
 7410SOL     OW23670   1.941   2.793   1.001 -0.2013  0.2669 -0.0009
 7410SOL    HW123671   1.951   2.707   0.962 -0.1625 -0.4762  1.5743
 7410SOL    HW223672   1.886   2.778   1.078 -1.5138  1.9118 -0.5473
 7411SOL     OW23673   6.180   1.398   6.705  0.4038 -0.5559  0.2981
 7411SOL    HW123674   6.174   1.309   6.670  0.5466 -0.0086 -1.1797
 7411SOL    HW223675   6.196   1.453   6.629 -0.5150  0.8588  1.0785
 7412SOL     OW23676   6.724   0.619   3.112 -0.0150 -0.1144 -0.6021
 7412SOL    HW123677   6.700   0.689   3.052 -1.9997 -0.8418 -0.7513
 7412SOL    HW223678   6.672   0.544   3.082 -0.2299 -0.7947  1.3695
 7413SOL     OW23679   0.215   0.399   4.190 -0.2538  0.3338 -0.1569
 7413SOL    HW123680   0.188   0.313   4.221 -0.1596 -1.4535 -4.3844
 7413SOL    HW223681   0.134   0.450   4.186 -0.8935 -0.7049 -0.7208
 7414SOL     OW23682   3.827   2.763   8.576  0.4571 -0.0861  0.1998
 7414SOL    HW123683   3.888   2.749   8.504 -0.2613 -0.3428 -0.3675
 7414SOL    HW223684   3.841   2.688   8.635  1.1108  0.1755  0.3868
 7415SOL     OW23685   6.686   5.412   7.559  0.2149 -0.0427  0.0982
 7415SOL    HW123686   6.770   5.388   7.519  0.6253  0.7235  0.4847
 7415SOL    HW223687   6.696   5.387   7.651  1.1047  2.5683  0.8007
 7416SOL     OW23688   1.795   4.000   3.319  0.2839 -0.2570  0.0061
 7416SOL    HW123689   1.852   3.935   3.361 -0.8218 -0.5295  1.1248
 7416SOL    HW223690   1.787   4.070   3.384 -1.2890 -0.5968  0.2218
 7417SOL     OW23691   0.967   5.412   0.243  0.8495 -0.1217 -0.0966
 7417SOL    HW123692   0.939   5.396   0.333  1.9437 -0.0245  0.2741
 7417SOL    HW223693   1.011   5.497   0.246  0.5564  0.0648 -0.8079
 7418SOL     OW23694   3.504   7.700   3.925  0.5235 -0.1468 -0.0696
 7418SOL    HW123695   3.507   7.737   4.014  0.2170 -0.3750  0.0386
 7418SOL    HW223696   3.513   7.776   3.868 -1.6000  0.3402  0.1207
 7419SOL     OW23697   1.996   2.479   6.862 -0.3715 -0.6979  0.1236
 7419SOL    HW123698   2.076   2.445   6.822 -0.1327  0.1428 -0.1288
 7419SOL    HW223699   1.992   2.571   6.835  0.0038  0.0319  2.3013
 7420SOL     OW23700   5.622   1.968  11.195  0.1855  0.1217  0.2052
 7420SOL    HW123701   5.555   2.001  11.134 -1.0444 -1.9234  0.3339
 7420SOL    HW223702   5.666   2.046  11.227  1.7548  1.3080 -4.1875
 7421SOL     OW23703   6.278   7.522   2.369  0.0679  0.3421 -0.4252
 7421SOL    HW123704   6.225   7.446   2.343  0.6620 -0.3338  0.2693
 7421SOL    HW223705   6.369   7.494   2.355  0.2615  1.5250 -1.7024
 7422SOL     OW23706   6.402   6.119  10.558  0.1817  0.4634  0.7221
 7422SOL    HW123707   6.358   6.034  10.562 -0.7014  0.9376  1.2778
 7422SOL    HW223708   6.331   6.183  10.565  0.8759  1.2449  0.6797
 7423SOL     OW23709   3.334   6.177   9.820  0.4765  0.3864  0.5939
 7423SOL    HW123710   3.281   6.167   9.899  0.8239 -1.2136  0.6620
 7423SOL    HW223711   3.344   6.088   9.786 -1.9129  1.1655 -2.7654
 7424SOL     OW23712   0.879   0.648  11.048 -0.4558 -0.1403 -0.0226
 7424SOL    HW123713   0.919   0.667  11.133  2.0024  0.6158 -1.2200
 7424SOL    HW223714   0.794   0.691  11.051 -0.2872  0.1456  1.9220
 7425SOL     OW23715   2.330   0.167   8.255 -0.0023  0.2690 -0.1566
 7425SOL    HW123716   2.349   0.104   8.325 -0.2307 -0.0647 -0.3929
 7425SOL    HW223717   2.388   0.241   8.274 -1.6947  1.2027  1.7365
 7426SOL     OW23718   4.187   7.475   6.492 -0.0200  0.0409 -0.2073
 7426SOL    HW123719   4.096   7.500   6.473  0.0453  0.2883 -0.1925
 7426SOL    HW223720   4.199   7.392   6.445 -0.1420  0.1868 -0.4940
 7427SOL     OW23721   5.423   6.261   1.091 -0.3053  0.1846 -0.0872
 7427SOL    HW123722   5.364   6.261   1.166  0.6051  1.6317  0.6825
 7427SOL    HW223723   5.383   6.322   1.028 -0.4028 -0.0044 -0.2076
 7428SOL     OW23724   4.941   4.403   2.424  0.4014  0.3736 -0.1732
 7428SOL    HW123725   5.021   4.379   2.471  0.6313 -2.3826 -1.7678
 7428SOL    HW223726   4.967   4.405   2.332 -1.4773 -1.3921 -0.8172
 7429SOL     OW23727   3.944   7.274   3.598 -0.0491 -0.0539  0.3688
 7429SOL    HW123728   3.881   7.344   3.613 -0.7269 -0.6510  0.3586
 7429SOL    HW223729   4.007   7.283   3.669 -0.1306  0.5627  0.3674
 7430SOL     OW23730   0.794   6.767   6.900  0.1478 -0.1398 -0.3534
 7430SOL    HW123731   0.861   6.724   6.953  0.7183  1.6131  0.4298
 7430SOL    HW223732   0.830   6.853   6.881 -1.3825  0.4099 -0.9422
 7431SOL     OW23733   3.015   2.434  10.488 -0.3880 -0.3123 -0.0615
 7431SOL    HW123734   2.943   2.466  10.434 -0.1155  1.1914  0.4372
 7431SOL    HW223735   2.988   2.451  10.578  0.3008 -0.3384  0.1588
 7432SOL     OW23736   3.208   1.060   9.696  0.1552  0.3894 -0.4090
 7432SOL    HW123737   3.302   1.070   9.708  0.3078 -1.3649  0.1625
 7432SOL    HW223738   3.170   1.139   9.734  1.1720 -0.6682  3.1433
 7433SOL     OW23739   4.896   3.464   9.741 -0.4506  0.3124  0.0163
 7433SOL    HW123740   4.925   3.419   9.662 -0.3270 -1.8337  1.2007
 7433SOL    HW223741   4.806   3.435   9.754 -0.8615  1.5467  0.0735
 7434SOL     OW23742   4.281   5.124   9.034  0.1216 -0.0449 -0.2523
 7434SOL    HW123743   4.257   5.051   8.977  0.7343  0.0140 -0.5907
 7434SOL    HW223744   4.351   5.089   9.090 -1.0732 -0.3817  1.0959
 7435SOL     OW23745   1.458   7.728   3.337  0.4165  0.1794  0.5802
 7435SOL    HW123746   1.401   7.758   3.408  0.8982  1.9882  0.2454
 7435SOL    HW223747   1.407   7.743   3.257  1.4986  2.3140  0.2372
 7436SOL     OW23748   2.945   7.078  11.451 -0.8639  0.5505  0.9893
 7436SOL    HW123749   3.022   7.133  11.442 -0.1533 -0.4511  0.7125
 7436SOL    HW223750   2.980   6.992  11.475 -1.8066 -0.1486 -0.0365
 7437SOL     OW23751   3.595   6.840   1.794 -0.4876 -0.4009  0.2215
 7437SOL    HW123752   3.622   6.748   1.801  0.1743 -0.1845  0.4678
 7437SOL    HW223753   3.618   6.879   1.878 -0.9766 -0.0568  0.2004
 7438SOL     OW23754   6.835   5.233   0.761  0.2536 -0.1141  0.5663
 7438SOL    HW123755   6.861   5.320   0.732 -0.8589 -0.0424 -0.2739
 7438SOL    HW223756   6.852   5.232   0.855 -0.5325  1.3156  0.7460
 7439SOL     OW23757   0.274   7.391   2.028 -0.3007  0.2664  0.4419
 7439SOL    HW123758   0.231   7.349   1.953  0.0635  0.1527  0.2936
 7439SOL    HW223759   0.217   7.465   2.049 -2.0024 -1.3724  1.9421
 7440SOL     OW23760   1.176   7.707   4.067 -0.2585  0.1030 -0.3443
 7440SOL    HW123761   1.241   7.696   3.997  0.4748 -0.6903  0.4257
 7440SOL    HW223762   1.227   7.696   4.148 -1.2201  0.2535  0.2931
 7441SOL     OW23763   7.737   6.218   1.185 -0.3463  0.4110  0.2787
 7441SOL    HW123764   7.757   6.140   1.134 -0.6042  0.7231 -0.3074
 7441SOL    HW223765   7.661   6.193   1.238 -1.1934  0.6198 -0.7916
 7442SOL     OW23766   7.028   3.693   9.665 -0.0259  0.1273 -0.0165
 7442SOL    HW123767   6.958   3.759   9.657 -0.3686 -0.3052 -0.7442
 7442SOL    HW223768   7.106   3.743   9.689 -0.6678  0.5686  1.2383
 7443SOL     OW23769   4.938   3.280   4.361  0.2846 -0.0192 -0.0725
 7443SOL    HW123770   4.896   3.356   4.400  0.3332  0.5676 -1.1258
 7443SOL    HW223771   4.883   3.206   4.389 -1.6431  0.7343 -1.5883
 7444SOL     OW23772   1.340   4.897   0.227  0.2378  0.0469  0.1367
 7444SOL    HW123773   1.290   4.957   0.171  1.8970  1.3354 -0.0612
 7444SOL    HW223774   1.368   4.827   0.168  0.7941  0.6652 -0.3543
 7445SOL     OW23775   3.362   6.435   0.313 -0.4045 -0.5987 -0.0797
 7445SOL    HW123776   3.313   6.510   0.279  0.3412 -0.0464  0.0439
 7445SOL    HW223777   3.295   6.369   0.331 -1.3205  0.7739  1.8356
 7446SOL     OW23778   4.076   4.061   8.000  0.3196  0.1322  0.1905
 7446SOL    HW123779   4.000   4.103   8.041 -0.1292 -0.7937  0.3345
 7446SOL    HW223780   4.125   4.133   7.961 -1.4521  0.6149 -1.2791
 7447SOL     OW23781   0.099   4.384   9.182 -0.4941  0.3029  0.2749
 7447SOL    HW123782   0.035   4.370   9.252  0.2509  1.1823  1.1687
 7447SOL    HW223783   0.135   4.298   9.164  0.8887  0.3297  2.5568
 7448SOL     OW23784   5.424   7.756   6.043 -0.5307  0.0811 -0.2639
 7448SOL    HW123785   5.486   7.700   5.997 -0.7556  0.2986 -0.8410
 7448SOL    HW223786   5.478   7.821   6.088 -0.3125 -0.1085 -0.2536
 7449SOL     OW23787   5.127   1.285   8.280 -0.0391 -0.3844  0.3067
 7449SOL    HW123788   5.041   1.244   8.267 -0.3644 -0.0428  1.2949
 7449SOL    HW223789   5.148   1.269   8.372  1.9361 -2.2655 -0.3909
 7450SOL     OW23790   2.067   1.556   1.512 -0.4259 -0.0332  0.1979
 7450SOL    HW123791   2.159   1.561   1.487 -0.9065  1.1450 -1.5336
 7450SOL    HW223792   2.051   1.639   1.557 -0.9151  0.3492 -0.6484
 7451SOL     OW23793   3.979   0.249   6.084 -0.5749  0.5833  0.3336
 7451SOL    HW123794   4.010   0.274   6.171  0.1825 -2.5780  1.1095
 7451SOL    HW223795   4.026   0.168   6.065 -1.5024  0.6438 -2.5965
 7452SOL     OW23796   6.185   6.467   6.948 -0.4325  0.3976 -0.0172
 7452SOL    HW123797   6.246   6.415   7.000 -0.8681 -0.1002  0.0080
 7452SOL    HW223798   6.141   6.403   6.892 -1.2636  0.6752  0.2981
 7453SOL     OW23799   0.026   4.008  11.136 -0.1525 -0.0372 -0.0050
 7453SOL    HW123800   0.063   3.962  11.212  1.2218  0.0518 -0.5970
 7453SOL    HW223801  -0.059   3.966  11.122  0.7908 -2.0000 -0.1441
 7454SOL     OW23802   2.198   4.611  11.505  0.2673  0.0069 -0.0481
 7454SOL    HW123803   2.187   4.682  11.568 -0.3285 -0.1514  0.0259
 7454SOL    HW223804   2.227   4.655  11.425  0.8990  0.2215  0.2917
 7455SOL     OW23805   6.578   1.034   2.523 -0.1443  0.0664 -0.0997
 7455SOL    HW123806   6.498   1.071   2.559  0.3764  1.3743 -0.2152
 7455SOL    HW223807   6.636   1.110   2.513  0.3309 -0.5181 -2.0734
 7456SOL     OW23808   2.860   2.629   0.647 -0.4747 -0.0589 -0.3939
 7456SOL    HW123809   2.881   2.570   0.719 -1.8921 -1.1803 -0.8278
 7456SOL    HW223810   2.781   2.590   0.608  0.0192  0.7494 -2.2772
 7457SOL     OW23811   3.239   6.058   8.556 -0.0202  0.8519 -0.5630
 7457SOL    HW123812   3.261   6.109   8.634 -0.6558  1.0296 -0.4966
 7457SOL    HW223813   3.146   6.075   8.541 -0.4333 -0.8247 -0.1519
 7458SOL     OW23814   7.418   1.254   2.242 -0.2140 -0.1045 -0.1926
 7458SOL    HW123815   7.493   1.214   2.199  0.0042  0.6039 -0.4968
 7458SOL    HW223816   7.353   1.263   2.173  0.1526  1.0754 -0.4072
 7459SOL     OW23817   4.045   1.802   3.526  0.1905 -0.6177 -0.1454
 7459SOL    HW123818   4.084   1.831   3.444  0.1874  0.6613  0.2766
 7459SOL    HW223819   4.040   1.707   3.519  0.2583 -0.5269 -1.5812
 7460SOL     OW23820   6.410   5.759   8.755 -0.4315 -0.0451  0.6381
 7460SOL    HW123821   6.504   5.754   8.770 -0.3356 -0.7750 -0.1604
 7460SOL    HW223822   6.396   5.845   8.717 -0.0920  0.0747  0.7810
 7461SOL     OW23823   1.945   0.025   8.153  0.2661 -0.0722  0.3426
 7461SOL    HW123824   1.883   0.052   8.085 -0.8989  0.8527  1.7074
 7461SOL    HW223825   2.002   0.101   8.164 -0.9863  0.7148  1.9253
 7462SOL     OW23826   3.558   7.252   6.965 -0.3097  0.0596 -0.0942
 7462SOL    HW123827   3.581   7.244   7.058 -1.7174  0.6453  0.3298
 7462SOL    HW223828   3.465   7.273   6.965 -0.0870  1.1902 -1.6170
 7463SOL     OW23829   6.838   4.682   2.097  0.2027  0.3300  0.0623
 7463SOL    HW123830   6.783   4.611   2.064  2.0014 -0.7065 -0.8542
 7463SOL    HW223831   6.922   4.641   2.118  1.0626  2.0521  0.2235
 7464SOL     OW23832   0.306   4.427   8.287  0.3970  0.1174  0.1479
 7464SOL    HW123833   0.293   4.399   8.377  0.4912 -2.4525 -0.5478
 7464SOL    HW223834   0.218   4.434   8.251  0.3805  0.4245  0.2496
 7465SOL     OW23835   0.160   1.521   1.029  0.5544 -0.2327  0.0860
 7465SOL    HW123836   0.208   1.599   1.057 -0.3563  0.2044  0.4601
 7465SOL    HW223837   0.218   1.479   0.965  1.5236  0.1596  0.6876
 7466SOL     OW23838   6.291   4.176   3.232 -0.0993 -0.3941 -0.1205
 7466SOL    HW123839   6.338   4.260   3.230 -0.2645 -0.3039 -0.2026
 7466SOL    HW223840   6.342   4.122   3.293  0.3961 -0.4634 -0.5878
 7467SOL     OW23841   0.458   5.037   0.472 -0.0776 -0.2733 -0.1071
 7467SOL    HW123842   0.461   4.990   0.555 -0.7230  0.8006  0.5547
 7467SOL    HW223843   0.543   5.019   0.431  1.1104  0.8102  1.7227
 7468SOL     OW23844   4.266   0.757  11.851 -0.2990 -0.2133 -0.2702
 7468SOL    HW123845   4.170   0.760  11.842 -0.3124  0.1409 -0.0358
 7468SOL    HW223846   4.289   0.666  11.833 -0.7554 -0.4617  0.3586
 7469SOL     OW23847   0.693   4.134  12.026  0.1487 -0.3446 -0.7026
 7469SOL    HW123848   0.718   4.202  11.964  0.7685 -1.6377 -1.9360
 7469SOL    HW223849   0.769   4.124  12.083  0.2644 -0.3602 -0.8589
 7470SOL     OW23850   7.920   7.630  11.260 -0.1104  0.7203 -0.2827
 7470SOL    HW123851   7.930   7.539  11.232  0.7219  0.0591  1.9294
 7470SOL    HW223852   7.837   7.658  11.221 -0.9989 -1.3869 -0.0448
 7471SOL     OW23853   5.915   1.342   3.981 -0.1215  0.1679 -0.3844
 7471SOL    HW123854   5.849   1.293   3.931  0.2966 -0.7178 -0.0971
 7471SOL    HW223855   5.898   1.319   4.072  1.2071 -0.9088 -0.3734
 7472SOL     OW23856   1.377   1.364   3.782 -0.0152  0.5900  0.1612
 7472SOL    HW123857   1.326   1.320   3.714  0.1557 -1.2853  1.1913
 7472SOL    HW223858   1.414   1.293   3.834  0.1324  1.9760  2.0313
 7473SOL     OW23859   5.041   7.286  11.039  0.3675 -0.1471  0.0153
 7473SOL    HW123860   5.113   7.225  11.053 -0.7180 -1.7473 -1.0352
 7473SOL    HW223861   4.995   7.289  11.123 -0.0023 -1.3946 -0.1272
 7474SOL     OW23862   4.391   1.173  10.670 -0.5527  0.5102 -0.5342
 7474SOL    HW123863   4.436   1.149  10.588 -1.3590  0.3515 -0.9344
 7474SOL    HW223864   4.456   1.157  10.738 -0.3874 -0.8478 -0.9920
 7475SOL     OW23865   6.610   2.927  10.934  0.8381 -0.7225 -0.0124
 7475SOL    HW123866   6.657   2.865  10.879  3.6030  1.0361  0.2006
 7475SOL    HW223867   6.595   3.003  10.878 -0.6542 -0.7133  0.3328
 7476SOL     OW23868   0.221   1.836   6.086  0.8499 -0.2964 -0.6936
 7476SOL    HW123869   0.194   1.923   6.115  0.8726 -0.9467  1.4121
 7476SOL    HW223870   0.160   1.815   6.015 -1.1562  0.2383  0.7753
 7477SOL     OW23871   2.132   7.874   3.558  0.7242 -0.9056  0.2293
 7477SOL    HW123872   2.227   7.886   3.552  0.8174 -1.8944 -0.6551
 7477SOL    HW223873   2.103   7.939   3.621  1.8002  0.3887 -0.5600
 7478SOL     OW23874   7.010   2.005   7.352  0.0113  0.1820  0.2639
 7478SOL    HW123875   7.102   2.015   7.330  0.5631 -3.0242  0.5839
 7478SOL    HW223876   6.970   1.972   7.271 -0.4372 -0.2148  0.6437
 7479SOL     OW23877   6.898   7.259   9.701  0.3317  0.3078  0.7932
 7479SOL    HW123878   6.819   7.242   9.650  0.8071 -3.4738  1.0163
 7479SOL    HW223879   6.879   7.223   9.788  1.5545  1.4146  1.5632
 7480SOL     OW23880   2.598   1.092   4.616  0.0539 -0.6039 -0.1035
 7480SOL    HW123881   2.514   1.124   4.651  0.4857 -0.3116  0.7069
 7480SOL    HW223882   2.574   1.038   4.541 -0.7943  0.4522 -0.6221
 7481SOL     OW23883   2.501   2.151   1.891 -0.1866 -0.3462 -0.0835
 7481SOL    HW123884   2.421   2.111   1.859 -0.1178  0.3179 -1.1334
 7481SOL    HW223885   2.507   2.124   1.983 -0.8451 -1.5807 -0.3950
 7482SOL     OW23886   0.036   2.411  11.485  0.6224  0.3079 -0.3848
 7482SOL    HW123887   0.030   2.366  11.401 -2.6529  0.6165 -0.4668
 7482SOL    HW223888   0.072   2.345  11.545  0.0667 -0.9698 -1.4120
 7483SOL     OW23889   5.635   0.962  12.425  0.7769  0.9258  0.0299
 7483SOL    HW123890   5.671   0.922  12.346 -0.5408  2.0172 -1.1744
 7483SOL    HW223891   5.542   0.940  12.424  0.5321  1.8611  0.6850
 7484SOL     OW23892   3.160   0.721   4.630  0.3336 -0.4219  0.2215
 7484SOL    HW123893   3.239   0.699   4.679 -0.5384 -1.7029  1.1360
 7484SOL    HW223894   3.091   0.726   4.697 -0.0691  2.5989 -0.2879
 7485SOL     OW23895   0.886   2.051   1.203  0.0007 -0.0455  0.3330
 7485SOL    HW123896   0.925   1.996   1.272  2.1480  0.8425 -0.1140
 7485SOL    HW223897   0.866   1.989   1.133  2.3787 -0.3505 -0.1628
 7486SOL     OW23898   6.278   7.085   1.715 -0.4789 -0.0045 -0.7039
 7486SOL    HW123899   6.222   7.106   1.790  0.2475 -0.7953  0.0822
 7486SOL    HW223900   6.361   7.128   1.734  0.0808 -1.1472 -0.4727
 7487SOL     OW23901   0.822   3.011   5.845  0.0331 -0.1460 -0.3031
 7487SOL    HW123902   0.749   3.061   5.811  0.9983 -1.0204 -4.0844
 7487SOL    HW223903   0.895   3.073   5.849  0.0557 -0.1734 -0.2859
 7488SOL     OW23904   2.689   3.033   3.690  0.0598  0.0677 -0.3995
 7488SOL    HW123905   2.649   3.118   3.710 -0.1892  0.1907 -1.3440
 7488SOL    HW223906   2.627   2.968   3.722  0.6540  0.2210  1.1176
 7489SOL     OW23907   4.599   4.921  10.193 -0.3665  0.1481 -0.0053
 7489SOL    HW123908   4.616   4.991  10.130 -0.7420 -1.6859 -2.2575
 7489SOL    HW223909   4.506   4.902  10.182 -0.1668 -1.0045  0.2354
 7490SOL     OW23910   1.839   5.862   5.021  0.2391  0.0511  0.0411
 7490SOL    HW123911   1.931   5.835   5.016  0.5656  1.1688 -0.3293
 7490SOL    HW223912   1.840   5.955   4.997 -0.9628  0.1359  0.2537
 7491SOL     OW23913   5.823   7.613  11.853  0.1474 -0.1786  0.3302
 7491SOL    HW123914   5.823   7.702  11.819  1.5541 -0.6072 -0.9105
 7491SOL    HW223915   5.913   7.582  11.838 -0.7467 -2.4049 -0.9318
 7492SOL     OW23916   1.506   5.522   2.757  0.6150 -0.3821  0.0862
 7492SOL    HW123917   1.469   5.610   2.759 -0.4587 -0.7919 -0.8033
 7492SOL    HW223918   1.433   5.466   2.733  1.2256 -1.5617  0.8811
 7493SOL     OW23919   7.694   2.489   8.459  0.0375  0.2012  0.5701
 7493SOL    HW123920   7.637   2.537   8.399  1.4509  1.4872  0.1746
 7493SOL    HW223921   7.639   2.470   8.535 -1.5430 -0.6871 -0.7400
 7494SOL     OW23922   1.698   1.107   5.264  0.1691  0.3362  0.0255
 7494SOL    HW123923   1.694   1.045   5.338 -1.3839  0.3147 -0.0392
 7494SOL    HW223924   1.668   1.190   5.301 -0.1981  0.4295 -0.4696
 7495SOL     OW23925   7.470   5.899   2.743  0.1724  0.3057  0.0228
 7495SOL    HW123926   7.551   5.870   2.701  0.5528 -0.6497  1.3565
 7495SOL    HW223927   7.417   5.933   2.671  1.3282 -0.0371 -1.0305
 7496SOL     OW23928   4.594   7.452   7.739 -0.7240  0.5728 -0.0585
 7496SOL    HW123929   4.581   7.375   7.683  0.9742 -1.0300  1.5732
 7496SOL    HW223930   4.512   7.462   7.786 -0.2014 -1.9621  1.6004
 7497SOL     OW23931   3.899   5.918   7.289 -0.1429 -0.1815 -0.0887
 7497SOL    HW123932   3.871   6.003   7.256  0.7812 -0.2367 -1.0640
 7497SOL    HW223933   3.938   5.937   7.375  0.0481  0.3812 -0.2984
 7498SOL     OW23934   4.645   1.575  11.279  0.3088  0.1940 -0.4532
 7498SOL    HW123935   4.676   1.666  11.277  1.8471 -0.3114 -0.7195
 7498SOL    HW223936   4.550   1.583  11.291  0.2787  1.8518 -1.4461
 7499SOL     OW23937   3.123   7.253   0.617 -0.3892 -0.1386 -0.1804
 7499SOL    HW123938   3.201   7.197   0.614  0.3240  0.7932  0.4374
 7499SOL    HW223939   3.114   7.286   0.527  0.4943  0.4884 -0.0519
 7500SOL     OW23940   3.499   1.497   7.672  0.2383  0.5525 -0.0973
 7500SOL    HW123941   3.532   1.428   7.730  0.3276  0.5090 -0.1993
 7500SOL    HW223942   3.404   1.484   7.672  0.3697 -0.5617 -1.3554
 7501SOL     OW23943   7.740   4.992  12.384  0.4962  0.0640 -0.0889
 7501SOL    HW123944   7.671   4.926  12.391 -0.4935  0.9729 -1.0085
 7501SOL    HW223945   7.783   4.973  12.301 -0.2142  0.9442 -0.6766
 7502SOL     OW23946   7.035   0.972   6.917  0.3384 -0.4837 -0.4687
 7502SOL    HW123947   7.057   1.020   6.997  1.1381  1.5211 -1.8162
 7502SOL    HW223948   7.108   0.911   6.905 -0.5261 -1.9439  1.0775
 7503SOL     OW23949   2.062   1.497   7.260 -0.7143  0.0703  0.2176
 7503SOL    HW123950   2.000   1.533   7.323  1.4698  1.3620  1.7979
 7503SOL    HW223951   2.081   1.409   7.291  0.9872  0.9864  2.0257
 7504SOL     OW23952   5.827   3.850  10.429  0.2379 -0.4178  0.2411
 7504SOL    HW123953   5.778   3.921  10.471  1.4087  0.7304 -0.2855
 7504SOL    HW223954   5.763   3.778  10.423 -2.1545  1.7069 -2.4374
 7505SOL     OW23955   5.179   7.047  11.070  0.1219  0.4238  0.3653
 7505SOL    HW123956   5.274   7.057  11.080  0.1472  1.3435 -0.6081
 7505SOL    HW223957   5.162   6.957  11.097  1.7265 -0.7539 -2.1823
 7506SOL     OW23958   7.719   3.417   2.489  0.2686  0.1190  0.7469
 7506SOL    HW123959   7.709   3.494   2.432 -1.0237 -0.8656 -0.4391
 7506SOL    HW223960   7.711   3.452   2.577 -2.1265  1.1764  0.2002
 7507SOL     OW23961   5.688   1.361  10.626 -0.4388 -0.6602 -0.5022
 7507SOL    HW123962   5.659   1.369  10.535 -0.4701 -1.4138 -0.5655
 7507SOL    HW223963   5.662   1.444  10.667 -3.4495 -1.5208 -0.3631
 7508SOL     OW23964   4.446   4.159   2.746 -0.2963 -0.4714 -0.3052
 7508SOL    HW123965   4.469   4.215   2.820 -0.2171 -0.1245 -0.5877
 7508SOL    HW223966   4.453   4.069   2.780  0.3030 -0.3351 -0.0468
 7509SOL     OW23967   4.383   3.530   5.640 -0.2097  0.2521  0.0044
 7509SOL    HW123968   4.298   3.514   5.598 -0.2209  1.2073 -0.3813
 7509SOL    HW223969   4.438   3.457   5.613 -0.1499  0.9418 -1.9052
 7510SOL     OW23970   5.667   5.414   0.793  0.3425  0.2294 -0.0806
 7510SOL    HW123971   5.654   5.328   0.751  2.4592 -0.3663  0.3548
 7510SOL    HW223972   5.731   5.457   0.737 -0.2495  1.3134  0.0570
 7511SOL     OW23973   7.522   2.823   0.543  0.1693 -0.1443 -0.1621
 7511SOL    HW123974   7.484   2.737   0.557  1.9957 -1.1123 -0.7828
 7511SOL    HW223975   7.474   2.881   0.602 -1.3814 -1.4919 -0.0499
 7512SOL     OW23976   7.298   3.037   9.641 -0.6290 -0.1390  0.8474
 7512SOL    HW123977   7.342   3.009   9.561 -2.2065 -0.4903  0.0492
 7512SOL    HW223978   7.366   3.078   9.694  0.6119 -0.6211 -0.3286
 7513SOL     OW23979   4.294   5.085   3.185  0.3024 -0.0195 -0.2559
 7513SOL    HW123980   4.263   5.143   3.116  1.4367  0.3138 -0.4914
 7513SOL    HW223981   4.293   5.139   3.264  1.2576  0.3044 -0.4558
 7514SOL     OW23982   3.119   7.056  12.207 -0.0245 -0.3598  0.4041
 7514SOL    HW123983   3.029   7.089  12.211  0.1989  0.4805 -0.8997
 7514SOL    HW223984   3.174   7.130  12.232  0.4063 -0.0658 -1.2622
 7515SOL     OW23985   1.771   7.049   8.582  0.2349  0.2024  0.1828
 7515SOL    HW123986   1.835   7.120   8.573  1.9184 -1.1475  0.8422
 7515SOL    HW223987   1.703   7.085   8.638  1.2583  1.1773  0.8529
 7516SOL     OW23988   6.322   4.818   7.514 -0.2332 -0.2572  0.1781
 7516SOL    HW123989   6.407   4.782   7.487  0.8451  2.7887 -0.8767
 7516SOL    HW223990   6.274   4.829   7.432 -1.5459 -1.5113  0.7254
 7517SOL     OW23991   0.697   5.425   7.055  0.8188 -0.1496  0.6395
 7517SOL    HW123992   0.677   5.415   6.962 -0.5175  1.8912  0.6493
 7517SOL    HW223993   0.711   5.336   7.086  0.4909 -0.9408 -1.3391
 7518SOL     OW23994   6.223   5.231  11.352 -0.3830  0.0739 -0.1552
 7518SOL    HW123995   6.174   5.213  11.432 -0.0968 -2.1033 -0.3872
 7518SOL    HW223996   6.314   5.238  11.381 -0.2870 -0.6523 -0.2599
 7519SOL     OW23997   2.285   5.260   0.357  0.1646  0.3753 -0.2975
 7519SOL    HW123998   2.238   5.254   0.274 -1.1774  1.7071  0.3215
 7519SOL    HW223999   2.294   5.169   0.385 -1.3456  0.0118 -0.8553
 7520SOL     OW24000   7.364   7.581   3.950  0.0485  0.6796  0.6064
 7520SOL    HW124001   7.371   7.562   4.043 -1.1801 -1.4862  0.3086
 7520SOL    HW224002   7.429   7.524   3.909 -0.6821  0.2661  0.0064
 7521SOL     OW24003   0.675   4.863  10.346  0.3782  0.2571 -0.4403
 7521SOL    HW124004   0.763   4.887  10.374  0.4751  0.2935 -0.7721
 7521SOL    HW224005   0.634   4.946  10.323  0.9326  0.0771 -2.2213
 7522SOL     OW24006   1.319   6.471   7.776  0.2160 -0.2943  0.4599
 7522SOL    HW124007   1.248   6.437   7.721  0.6304 -0.1942 -0.1323
 7522SOL    HW224008   1.399   6.435   7.738  0.8182  2.2988 -0.9799
 7523SOL     OW24009   3.411   0.882  11.824 -0.1227  0.1415  0.6029
 7523SOL    HW124010   3.395   0.822  11.897  1.9947 -0.1845  0.8659
 7523SOL    HW224011   3.352   0.852  11.755 -1.2560 -0.3366  1.7339
 7524SOL     OW24012   7.156   6.654   0.614  0.0328 -0.2987  0.0402
 7524SOL    HW124013   7.192   6.732   0.657 -1.1258 -0.0202  0.5341
 7524SOL    HW224014   7.233   6.604   0.587  0.7891  0.3625  0.9076
 7525SOL     OW24015   0.099   2.709  10.618  0.4212  0.5861 -0.0010
 7525SOL    HW124016   0.011   2.689  10.651  1.2574 -0.1825  1.8699
 7525SOL    HW224017   0.132   2.776  10.677  1.7139 -0.3170  0.3203
 7526SOL     OW24018   4.112   6.550   0.690  0.0686 -0.0008 -0.3754
 7526SOL    HW124019   4.175   6.570   0.620  1.4842 -1.0299  0.5381
 7526SOL    HW224020   4.031   6.592   0.662  1.3492  2.0759 -1.2335
 7527SOL     OW24021   5.692   3.167   5.713 -0.0509  0.3230 -0.2814
 7527SOL    HW124022   5.636   3.098   5.678 -1.5129  0.9704  0.6669
 7527SOL    HW224023   5.781   3.134   5.701 -0.5791 -0.4623 -2.4260
 7528SOL     OW24024   4.449   1.347   3.763  0.2645 -0.0832 -0.1604
 7528SOL    HW124025   4.361   1.372   3.734  0.9074  1.0767 -1.2044
 7528SOL    HW224026   4.469   1.268   3.714 -0.0575 -0.1552 -0.1792
 7529SOL     OW24027   4.862   7.137  10.459  0.8711  0.2156  0.4096
 7529SOL    HW124028   4.929   7.084  10.502  1.0807  0.8451  0.8686
 7529SOL    HW224029   4.814   7.075  10.404  0.2726 -0.7162  1.9214
 7530SOL     OW24030   3.330   6.865   7.989  0.2789 -1.0083 -0.1646
 7530SOL    HW124031   3.353   6.941   7.935  1.0625 -0.4299  0.9383
 7530SOL    HW224032   3.254   6.893   8.040  1.0164 -0.6554  0.7912
 7531SOL     OW24033   6.348   0.036   7.291  0.2217  0.1366 -0.5431
 7531SOL    HW124034   6.367   0.071   7.204  2.1328 -0.3758 -0.3634
 7531SOL    HW224035   6.287   0.100   7.329  0.8591  1.3941 -1.5413
 7532SOL     OW24036   1.738   2.869   3.937 -0.0097 -0.3586  0.5824
 7532SOL    HW124037   1.771   2.832   3.855 -1.3481  1.4102 -0.8234
 7532SOL    HW224038   1.772   2.810   4.005  3.1128 -0.5563 -0.9828
 7533SOL     OW24039   4.863   1.626   6.141 -0.6104 -0.1537 -0.0948
 7533SOL    HW124040   4.842   1.595   6.229 -2.4068  0.5036 -0.2509
 7533SOL    HW224041   4.884   1.719   6.153 -1.0769 -0.0101 -0.3898
 7534SOL     OW24042   5.404   3.194   7.794 -0.3082 -0.2164 -0.4233
 7534SOL    HW124043   5.409   3.288   7.813 -1.1017 -0.1624 -0.4873
 7534SOL    HW224044   5.404   3.189   7.698  0.3719 -0.3213 -0.4241
 7535SOL     OW24045   1.529   0.021   8.001  0.2351 -0.2146 -0.4106
 7535SOL    HW124046   1.619   0.046   7.982 -0.4008  1.7934 -1.1204
 7535SOL    HW224047   1.524  -0.072   7.979  1.9168 -0.1634 -1.1368
 7536SOL     OW24048   3.688   6.671   9.760 -0.2130  0.2674  0.0751
 7536SOL    HW124049   3.733   6.623   9.690 -0.7628  1.5922 -1.2624
 7536SOL    HW224050   3.717   6.762   9.748 -3.0422  1.1680 -0.7867
 7537SOL     OW24051   1.358   2.631   6.719  0.2216 -0.3319 -0.2429
 7537SOL    HW124052   1.371   2.672   6.634 -0.5958 -1.0039 -0.7209
 7537SOL    HW224053   1.283   2.677   6.757 -0.1171 -0.7603 -0.3811
 7538SOL     OW24054   3.716   5.386   0.541 -0.3458  0.2242 -0.2846
 7538SOL    HW124055   3.645   5.325   0.561 -1.1266  1.5953  1.4132
 7538SOL    HW224056   3.686   5.433   0.463 -0.6055 -0.2326 -0.4632
 7539SOL     OW24057   5.747   4.978  11.549 -0.2684  0.0225 -0.1228
 7539SOL    HW124058   5.674   5.040  11.548  1.7096  2.5453 -1.8262
 7539SOL    HW224059   5.735   4.929  11.630 -2.1364  2.4615  1.2338
 7540SOL     OW24060   1.887   4.176   0.579 -0.2582  0.1197 -0.1992
 7540SOL    HW124061   1.979   4.149   0.581 -0.9647 -2.7838 -1.3367
 7540SOL    HW224062   1.871   4.198   0.487 -0.9636 -0.6561 -0.2769
 7541SOL     OW24063   6.471   4.941   5.896  0.4749 -0.3853  0.3903
 7541SOL    HW124064   6.524   4.920   5.820 -0.0342 -0.9741  0.1862
 7541SOL    HW224065   6.453   4.856   5.936 -0.6750 -0.2420  0.2088
 7542SOL     OW24066   0.380   5.288   7.007  0.0216  0.0801  0.9463
 7542SOL    HW124067   0.448   5.308   6.942  0.6517  0.4765  1.7213
 7542SOL    HW224068   0.425   5.291   7.091 -0.5417 -1.5447  1.3510
 7543SOL     OW24069   0.551   0.316  10.289  0.1237  0.1512 -0.4413
 7543SOL    HW124070   0.573   0.285  10.377  0.6681  0.7440 -0.3611
 7543SOL    HW224071   0.618   0.380  10.269 -0.5626  0.7444 -0.8999
 7544SOL     OW24072   5.958   3.492   7.201  0.8435  0.4673  0.2735
 7544SOL    HW124073   5.880   3.528   7.161  2.1341  1.0626 -1.8455
 7544SOL    HW224074   6.028   3.507   7.137  2.6125 -0.4608  1.8689
 7545SOL     OW24075   7.682   0.150   5.891  0.3671  0.2046  0.7368
 7545SOL    HW124076   7.736   0.138   5.969 -0.0498  0.8809  1.1432
 7545SOL    HW224077   7.619   0.217   5.916  1.6070  2.1053 -0.8767
 7546SOL     OW24078   2.644   6.649   9.330  0.0214 -0.0974  0.2305
 7546SOL    HW124079   2.557   6.618   9.356 -0.3184  0.9351  0.3728
 7546SOL    HW224080   2.687   6.572   9.291 -1.0145 -0.5706 -0.0007
 7547SOL     OW24081   1.554   3.330  10.238 -0.1102  0.4150  0.0546
 7547SOL    HW124082   1.627   3.377  10.279  0.9836 -1.2746  0.1558
 7547SOL    HW224083   1.560   3.353  10.145 -0.4027  1.4652  0.2837
 7548SOL     OW24084   3.298   7.715   9.344 -0.0465 -0.0029 -0.0138
 7548SOL    HW124085   3.270   7.702   9.254  1.2166  0.7443 -0.5298
 7548SOL    HW224086   3.233   7.776   9.380  0.1076  0.6472 -0.7933
 7549SOL     OW24087   7.513   0.305   4.007  0.5033 -0.2740 -0.3240
 7549SOL    HW124088   7.496   0.350   4.089 -1.1208 -0.0557 -0.7520
 7549SOL    HW224089   7.542   0.217   4.033  1.6278  0.3092  0.4724
 7550SOL     OW24090   4.033   6.548   1.276 -0.3913  0.1960  0.2750
 7550SOL    HW124091   3.957   6.494   1.295 -0.5311  0.3502  0.1587
 7550SOL    HW224092   4.042   6.605   1.352  0.7609 -1.1140  1.1699
 7551SOL     OW24093   1.854   2.360  11.734 -0.2090 -0.3969  0.5015
 7551SOL    HW124094   1.933   2.321  11.695 -0.9169 -0.3311 -1.0899
 7551SOL    HW224095   1.878   2.451  11.749  0.1221 -0.4447  0.2939
 7552SOL     OW24096   1.446   6.346   8.053 -0.1894  0.6859  0.3485
 7552SOL    HW124097   1.375   6.410   8.044  0.6223  1.5922  0.2575
 7552SOL    HW224098   1.438   6.314   8.142 -1.2910  0.0669  0.0500
 7553SOL     OW24099   6.692   0.072   9.553 -0.9995  0.7258  0.2890
 7553SOL    HW124100   6.775   0.065   9.506 -1.0368  0.4227  0.2650
 7553SOL    HW224101   6.657  -0.017   9.553 -1.0527  0.7435  0.7941
 7554SOL     OW24102   2.008   4.245   9.614  0.1449 -0.5829 -0.1080
 7554SOL    HW124103   2.043   4.210   9.532  0.3143 -0.2702 -0.1730
 7554SOL    HW224104   1.920   4.208   9.621  0.2389 -0.8437 -0.2812
 7555SOL     OW24105   6.257   2.515   6.584 -0.1113 -0.2239 -0.0243
 7555SOL    HW124106   6.176   2.560   6.608 -0.1575  0.0224 -0.6205
 7555SOL    HW224107   6.240   2.423   6.601  0.2907  0.0410  2.0921
 7556SOL     OW24108   3.959   6.124  11.446 -0.3140  0.2109  0.3864
 7556SOL    HW124109   4.024   6.115  11.377  0.0837 -1.3223  0.9133
 7556SOL    HW224110   3.972   6.213  11.480  0.3397  0.5240 -0.6389
 7557SOL     OW24111   3.129   3.406  12.416 -0.0007  1.1018  0.1738
 7557SOL    HW124112   3.203   3.383  12.360  0.2223  0.0129  0.8841
 7557SOL    HW224113   3.168   3.420  12.503 -0.6285  0.3070  0.6037
 7558SOL     OW24114   6.327   5.717  11.224  0.0573  0.1505  0.3534
 7558SOL    HW124115   6.243   5.684  11.191  0.0017  0.7403 -0.1252
 7558SOL    HW224116   6.318   5.813  11.218  1.0653  0.2055 -0.4996
 7559SOL     OW24117   0.345   7.459  12.060  0.0644  0.1344 -0.2433
 7559SOL    HW124118   0.422   7.432  12.110  0.6467  0.3837 -0.9914
 7559SOL    HW224119   0.281   7.389  12.074 -0.4184  0.9912  2.2098
 7560SOL     OW24120   1.910   7.786  12.400 -0.0016  1.1717  0.0605
 7560SOL    HW124121   1.989   7.762  12.351 -0.5975 -1.7851  0.3934
 7560SOL    HW224122   1.918   7.741  12.483 -2.8576 -0.8804 -0.6186
 7561SOL     OW24123   7.591   2.242   7.978 -0.7275 -0.7628  0.2210
 7561SOL    HW124124   7.599   2.294   7.899 -1.8726 -0.6150  0.1850
 7561SOL    HW224125   7.516   2.280   8.025  0.1447 -0.6110  1.5560
 7562SOL     OW24126   2.658   3.752  11.112 -0.0423 -0.6299 -0.7187
 7562SOL    HW124127   2.711   3.706  11.047  2.8831 -0.3719  1.3150
 7562SOL    HW224128   2.613   3.682  11.160  0.6225 -1.0755 -0.7281
 7563SOL     OW24129   1.723   1.757   3.790 -0.1695 -0.1243  0.0932
 7563SOL    HW124130   1.695   1.790   3.875 -0.8039 -0.3870 -0.0096
 7563SOL    HW224131   1.655   1.786   3.729  0.8581  1.0427 -0.5304
 7564SOL     OW24132   3.726   1.267  11.915 -0.8377 -0.5468  0.5832
 7564SOL    HW124133   3.776   1.188  11.892  0.1268  0.5785 -1.5852
 7564SOL    HW224134   3.644   1.235  11.950 -0.9248 -2.5823 -1.2644
 7565SOL     OW24135   4.906   1.618   9.175  0.1025 -0.0509 -0.2680
 7565SOL    HW124136   4.985   1.609   9.122  0.6227 -1.8236  0.7167
 7565SOL    HW224137   4.834   1.599   9.115  0.6021 -0.9016 -0.6103
 7566SOL     OW24138   2.397   1.405  12.126  0.3206  0.2798  0.1680
 7566SOL    HW124139   2.366   1.335  12.183  2.4010  0.1440  1.2359
 7566SOL    HW224140   2.324   1.421  12.066 -1.8493  0.1756  2.5880
 7567SOL     OW24141   2.287   6.928   1.532  0.2853  0.0094 -0.4003
 7567SOL    HW124142   2.327   6.960   1.452 -0.4930  0.2232 -0.7099
 7567SOL    HW224143   2.255   7.007   1.576 -0.2508 -0.1951 -0.4111
 7568SOL     OW24144   6.141   7.911   1.251  0.0997  0.0164 -0.1987
 7568SOL    HW124145   6.131   7.994   1.206  0.8920  0.3552  0.2266
 7568SOL    HW224146   6.063   7.902   1.305 -0.6569 -0.1927 -1.2996
 7569SOL     OW24147   4.947   4.784   9.141  0.5744  0.3165  0.8640
 7569SOL    HW124148   4.894   4.711   9.172 -1.7263  1.4920 -0.0774
 7569SOL    HW224149   4.957   4.842   9.217  2.0144 -0.7010  1.4874
 7570SOL     OW24150   2.936   5.553   8.887  0.3384  0.8361 -0.7616
 7570SOL    HW124151   2.982   5.473   8.864  0.6519  0.9677 -0.5990
 7570SOL    HW224152   2.977   5.620   8.832  0.3391  0.9556 -0.6141
 7571SOL     OW24153   7.804   4.860   8.123  0.2999  0.0907 -0.0789
 7571SOL    HW124154   7.851   4.929   8.077  0.9398 -0.2862 -0.0077
 7571SOL    HW224155   7.751   4.818   8.056  1.5419 -0.7261 -0.5917
 7572SOL     OW24156   1.192   1.675   5.508  0.5732  0.1807  0.6666
 7572SOL    HW124157   1.159   1.733   5.440  1.7328  2.0094  1.5718
 7572SOL    HW224158   1.114   1.645   5.555 -0.1131  0.2230 -0.4156
 7573SOL     OW24159   5.984   1.734  12.115  0.2335 -0.0616 -0.1653
 7573SOL    HW124160   6.008   1.821  12.148  0.3057  0.3024 -1.1378
 7573SOL    HW224161   6.043   1.719  12.041  1.1221 -1.5294  0.7859
 7574SOL     OW24162   1.023   5.893   5.532 -0.0773  0.5710  0.3315
 7574SOL    HW124163   0.948   5.945   5.504  0.7879  1.3152 -0.6642
 7574SOL    HW224164   0.997   5.857   5.617 -1.4462  1.0369  0.1255
 7575SOL     OW24165   6.420   7.947  10.841  0.0178 -0.4782 -0.4007
 7575SOL    HW124166   6.439   8.036  10.812 -0.5038 -0.3287 -0.2975
 7575SOL    HW224167   6.505   7.907  10.854  0.2570  0.1203 -0.0970
 7576SOL     OW24168   1.276   3.064  10.947  0.0510 -0.1364  0.0072
 7576SOL    HW124169   1.241   2.976  10.929  0.8756 -0.5346  0.2870
 7576SOL    HW224170   1.294   3.101  10.861 -4.6220  1.6701 -0.4908
 7577SOL     OW24171   5.153   5.023  11.637 -0.5092 -0.2534 -0.3275
 7577SOL    HW124172   5.121   4.974  11.713 -1.8710 -0.4934 -1.0307
 7577SOL    HW224173   5.172   4.956  11.572 -0.6033  0.0287 -0.6445
 7578SOL     OW24174   5.456   4.006   4.600 -0.1664  0.2151  0.2851
 7578SOL    HW124175   5.465   4.101   4.588 -1.4653  0.3060 -0.0926
 7578SOL    HW224176   5.423   3.996   4.689 -0.2787  0.1270  0.2331
 7579SOL     OW24177   6.776   7.244   8.882  0.0961  0.1855  0.8375
 7579SOL    HW124178   6.788   7.186   8.806  1.7085  0.7446  0.6337
 7579SOL    HW224179   6.860   7.243   8.926 -0.5645  0.5830  2.1416
 7580SOL     OW24180   2.828   1.450   6.756 -0.3157 -0.3865 -0.1963
 7580SOL    HW124181   2.851   1.419   6.844 -0.2444  0.7142  0.1967
 7580SOL    HW224182   2.901   1.506   6.731 -0.3577 -0.6551 -0.9511
 7581SOL     OW24183   0.732   7.499   7.460 -0.2688  0.2926  0.4731
 7581SOL    HW124184   0.661   7.523   7.401 -0.9638 -0.0865  1.1488
 7581SOL    HW224185   0.794   7.572   7.453 -1.1539  1.0706  0.5689
 7582SOL     OW24186   1.502   4.407   1.046 -0.2842  0.3059  0.1975
 7582SOL    HW124187   1.593   4.381   1.032 -0.4793 -0.7513  0.7748
 7582SOL    HW224188   1.501   4.502   1.032  0.6198  0.1360 -1.2243
 7583SOL     OW24189   5.120   2.509   2.263 -0.1227  0.1174  0.5068
 7583SOL    HW124190   5.191   2.559   2.221 -0.6005  0.5375  0.1788
 7583SOL    HW224191   5.052   2.574   2.279 -1.0209 -0.5252 -0.5171
 7584SOL     OW24192   2.601   1.610  12.052  0.2145 -0.2344  0.1236
 7584SOL    HW124193   2.639   1.634  12.137  0.3482 -1.6362  0.4946
 7584SOL    HW224194   2.559   1.525  12.068  0.3295 -0.5691 -1.2321
 7585SOL     OW24195   1.067   2.281   9.972 -0.5533 -0.7909  0.5600
 7585SOL    HW124196   1.137   2.346   9.983 -0.4588 -0.7529 -0.2027
 7585SOL    HW224197   1.097   2.226   9.900 -0.3477 -2.0729  1.5767
 7586SOL     OW24198   6.084   0.802   3.848 -0.2264  0.2383  0.6342
 7586SOL    HW124199   6.107   0.715   3.878  0.3488  0.4532  0.8320
 7586SOL    HW224200   6.103   0.859   3.922 -0.8986  0.4938  0.6167
 7587SOL     OW24201   3.619   2.690   9.374 -0.1270 -0.3444  0.4951
 7587SOL    HW124202   3.638   2.655   9.461 -2.0572 -1.1184  0.6616
 7587SOL    HW224203   3.536   2.736   9.384  0.0591  0.3160 -0.7627
 7588SOL     OW24204   5.322   5.640   0.266  0.6367 -0.6111 -1.0342
 7588SOL    HW124205   5.264   5.646   0.342  0.8564  0.3663 -0.9286
 7588SOL    HW224206   5.410   5.641   0.304  0.8539  2.4738 -1.3478
 7589SOL     OW24207   6.386   4.061   5.589  0.0365 -0.1605  0.1971
 7589SOL    HW124208   6.477   4.085   5.606 -0.0955  0.3483  0.2193
 7589SOL    HW224209   6.342   4.073   5.673 -0.0769 -0.2631  0.1517
 7590SOL     OW24210   6.057   6.902   0.648 -0.5600  0.0993  0.6204
 7590SOL    HW124211   6.013   6.844   0.587 -0.9858  0.8570  0.1905
 7590SOL    HW224212   6.078   6.847   0.723  1.5034 -1.3026 -0.8506
 7591SOL     OW24213   6.146   0.930   4.592  0.4019  0.5101 -0.1650
 7591SOL    HW124214   6.138   0.982   4.672  0.6575  1.7738 -0.9379
 7591SOL    HW224215   6.207   0.860   4.615  1.4387  1.5681  0.4017
 7592SOL     OW24216   5.793   0.720   0.787  0.4440  0.2267  0.2042
 7592SOL    HW124217   5.754   0.806   0.773  0.3955  0.3161  0.8560
 7592SOL    HW224218   5.869   0.737   0.843 -1.0617 -0.4163  2.6294
 7593SOL     OW24219   1.438   3.891   5.054 -0.4892 -0.0773 -0.1142
 7593SOL    HW124220   1.344   3.896   5.066 -0.3430  0.4857  0.8344
 7593SOL    HW224221   1.461   3.803   5.083 -0.8251 -0.5545 -1.2164
 7594SOL     OW24222   7.499   4.647  11.827 -0.4006 -0.4897  0.2378
 7594SOL    HW124223   7.523   4.710  11.760  0.7138  1.3622  2.2465
 7594SOL    HW224224   7.403   4.648  11.827 -0.4084  0.6271 -0.2939
 7595SOL     OW24225   2.732   3.861   3.096  0.1403  0.2202  0.1162
 7595SOL    HW124226   2.650   3.845   3.142  0.4540 -1.9804  0.0605
 7595SOL    HW224227   2.709   3.914   3.021 -1.2304 -0.3495  0.1186
 7596SOL     OW24228   7.256   6.536   9.857  0.1975 -0.4026  0.0882
 7596SOL    HW124229   7.264   6.440   9.857  1.2549 -0.3227  0.3338
 7596SOL    HW224230   7.248   6.559   9.950 -1.4115 -0.3304 -0.0282
 7597SOL     OW24231   6.494   6.787   2.574  0.4649  0.0856 -0.4997
 7597SOL    HW124232   6.507   6.739   2.656 -0.2115  2.5034  1.1546
 7597SOL    HW224233   6.571   6.844   2.567  1.2353 -1.0851 -2.3812
 7598SOL     OW24234   3.376   0.486   3.811  0.1872  0.2132  0.1993
 7598SOL    HW124235   3.353   0.393   3.805  0.5564  0.1737 -0.8670
 7598SOL    HW224236   3.470   0.486   3.827  0.1510  0.4056  0.4151
 7599SOL     OW24237   6.739   7.045   5.948 -0.6203  0.3672 -0.2814
 7599SOL    HW124238   6.730   7.023   6.040 -1.1387 -0.7085 -0.5703
 7599SOL    HW224239   6.833   7.046   5.932 -0.5501 -0.6322  0.0021
 7600SOL     OW24240   2.894   6.477   5.647 -0.1635  0.0019  0.2571
 7600SOL    HW124241   2.928   6.507   5.562  0.9436 -2.3348 -0.2066
 7600SOL    HW224242   2.961   6.417   5.679 -0.2711  1.2618  3.1200
 7601SOL     OW24243   4.496   0.552  11.555  0.0636 -0.1752  0.5155
 7601SOL    HW124244   4.536   0.571  11.639  1.5429  2.3717 -0.6597
 7601SOL    HW224245   4.432   0.622  11.542 -1.7959 -1.7895  0.4445
 7602SOL     OW24246   5.246   0.849   2.058 -0.2275  0.3727 -0.0838
 7602SOL    HW124247   5.276   0.920   2.001  0.5138  0.3178  0.2319
 7602SOL    HW224248   5.155   0.834   2.032 -0.2882  1.2169 -0.3783
 7603SOL     OW24249   6.114   0.766   9.981 -0.0749  0.3955  0.1750
 7603SOL    HW124250   6.199   0.807   9.973 -0.9637  2.4976  0.8875
 7603SOL    HW224251   6.119   0.718  10.064  0.5692  0.0681 -0.0465
 7604SOL     OW24252   6.757   0.815   9.088  0.3746  0.2231 -0.1373
 7604SOL    HW124253   6.796   0.838   9.173  0.1137 -0.9668  0.3250
 7604SOL    HW224254   6.817   0.751   9.050  0.4769  0.7336 -0.8562
 7605SOL     OW24255   0.291   3.905   4.145 -0.4948  0.2187 -0.0905
 7605SOL    HW124256   0.253   3.940   4.064  3.8358  2.5718 -1.5125
 7605SOL    HW224257   0.326   3.820   4.120 -0.0858  0.4804 -0.4318
 7606SOL     OW24258   0.004   7.110   6.463 -0.2278  0.5384  0.0108
 7606SOL    HW124259   0.079   7.169   6.465  1.1886 -1.1451 -0.6200
 7606SOL    HW224260   0.029   7.037   6.519 -2.0795  0.6490  1.0549
 7607SOL     OW24261   6.362   0.021   9.689 -0.1625 -0.3125  0.7963
 7607SOL    HW124262   6.428  -0.023   9.637  0.5916 -0.0493  1.5153
 7607SOL    HW224263   6.334  -0.045   9.753 -0.6474 -0.4438  0.4529
 7608SOL     OW24264   6.240   0.305  11.124 -0.3409  0.1659 -0.3900
 7608SOL    HW124265   6.323   0.300  11.077 -0.8785 -0.1849 -1.3279
 7608SOL    HW224266   6.265   0.320  11.215  0.7180  1.7364 -0.8898
 7609SOL     OW24267   6.763   4.066   9.973  0.1100 -0.1286  0.1083
 7609SOL    HW124268   6.797   4.082  10.061 -1.6138  0.7186  0.6552
 7609SOL    HW224269   6.797   4.139   9.920 -1.5606  1.2477  0.8676
 7610SOL     OW24270   6.395   3.127   6.537  0.6122  0.0575 -0.1740
 7610SOL    HW124271   6.439   3.072   6.473 -0.4065  1.0566 -1.8049
 7610SOL    HW224272   6.328   3.174   6.487  0.5338  1.7415  1.3886
 7611SOL     OW24273   0.919   7.090  11.717  0.5192  0.6594  0.2075
 7611SOL    HW124274   0.900   7.135  11.799 -0.8640 -1.0660  0.8850
 7611SOL    HW224275   0.948   7.003  11.743  1.8719  0.6716 -1.1078
 7612SOL     OW24276   0.811   7.819   1.607 -0.2894  0.3850  0.7872
 7612SOL    HW124277   0.886   7.828   1.666  1.5817 -0.5618 -1.2384
 7612SOL    HW224278   0.842   7.856   1.524 -2.6291  1.2836  0.2444
 7613SOL     OW24279   7.361   1.924  12.419  0.0743 -0.2028 -0.1636
 7613SOL    HW124280   7.423   1.964  12.358 -0.0304 -1.1915 -0.9400
 7613SOL    HW224281   7.283   1.980  12.415  0.2824  0.0633 -0.4898
 7614SOL     OW24282   7.271   0.016   8.840 -0.0770  0.1867  0.2296
 7614SOL    HW124283   7.258   0.109   8.859 -0.1142  0.6784 -1.9021
 7614SOL    HW224284   7.189  -0.012   8.801  0.5631 -0.2146 -0.8915
 7615SOL     OW24285   7.662   1.506   3.761  0.2012  0.5631 -0.3943
 7615SOL    HW124286   7.679   1.425   3.712 -1.2577  0.4709 -0.7950
 7615SOL    HW224287   7.664   1.575   3.695  0.9483  0.7949 -0.1330
 7616SOL     OW24288   0.487   7.157   1.725  0.1034  0.1029  0.5964
 7616SOL    HW124289   0.491   7.107   1.806 -0.7378 -0.5529  0.2390
 7616SOL    HW224290   0.399   7.194   1.723  0.4005  0.8212  0.3918
 7617SOL     OW24291   3.306   1.892   5.373  0.4047  0.8945 -0.5121
 7617SOL    HW124292   3.242   1.963   5.382 -1.9671 -1.1065 -0.4094
 7617SOL    HW224293   3.298   1.864   5.281 -0.2953 -0.5706 -0.0409
 7618SOL     OW24294   2.386   6.187  10.341  0.1446 -0.1084  0.5410
 7618SOL    HW124295   2.451   6.120  10.362  1.9136  1.7195  1.1792
 7618SOL    HW224296   2.355   6.164  10.253  1.1230 -1.4189  0.5109
 7619SOL     OW24297   7.427   2.380   1.330  0.4625 -0.7829  0.7828
 7619SOL    HW124298   7.363   2.312   1.349  0.1802 -1.2216 -1.4770
 7619SOL    HW224299   7.419   2.442   1.402 -0.9957 -1.9109  1.6235
 7620SOL     OW24300   1.521   7.093   0.687 -0.6521 -0.5078  0.5764
 7620SOL    HW124301   1.462   7.060   0.618  0.4326 -1.1898 -0.0572
 7620SOL    HW224302   1.472   7.164   0.729 -0.9994  0.5724 -1.5217
 7621SOL     OW24303   4.282   2.765   5.436 -0.1785 -0.1437 -0.4454
 7621SOL    HW124304   4.187   2.776   5.431 -0.0686  0.4523 -1.8377
 7621SOL    HW224305   4.317   2.841   5.389  0.9785 -0.4583 -0.1166
 7622SOL     OW24306   1.713   4.890  10.044  0.6146  0.1110 -0.5789
 7622SOL    HW124307   1.757   4.867  10.126  1.9833  0.4363 -1.1964
 7622SOL    HW224308   1.656   4.815  10.026  2.1454 -1.1205 -0.5862
 7623SOL     OW24309   6.560   5.346   9.450  0.1997  0.0823  0.0791
 7623SOL    HW124310   6.504   5.423   9.449 -0.5262 -0.4196  0.7368
 7623SOL    HW224311   6.521   5.287   9.386 -0.1294 -0.3346  0.6583
 7624SOL     OW24312   5.965   0.430   8.009  0.4363  0.1243  0.0280
 7624SOL    HW124313   5.907   0.450   8.083 -0.9375 -2.5237 -0.2120
 7624SOL    HW224314   5.961   0.508   7.953  0.0849  1.4568  1.8142
 7625SOL     OW24315   3.252   2.125   8.456 -0.2377 -0.2932  0.3057
 7625SOL    HW124316   3.275   2.204   8.407  1.8499 -0.3976  1.0177
 7625SOL    HW224317   3.157   2.130   8.466 -0.3959  1.0613 -1.4362
 7626SOL     OW24318   6.798   0.001   3.193 -0.4079  0.1824  0.0745
 7626SOL    HW124319   6.779  -0.087   3.225  0.1683 -0.3222 -0.8993
 7626SOL    HW224320   6.875  -0.010   3.137 -0.5496  1.2425 -0.3591
 7627SOL     OW24321   3.139   5.350   1.993 -0.2016  0.3462 -0.0293
 7627SOL    HW124322   3.211   5.368   1.932 -1.1548  0.5194 -1.1575
 7627SOL    HW224323   3.165   5.391   2.075  0.5247  1.3075 -0.7177
 7628SOL     OW24324   0.436   0.263   1.075 -0.1355  0.2684 -0.0853
 7628SOL    HW124325   0.415   0.268   1.168 -3.6929  1.7128 -0.7914
 7628SOL    HW224326   0.404   0.178   1.047  1.6263 -0.4917  0.0621
 7629SOL     OW24327   6.447   7.498   8.846 -0.3441 -0.5614  0.3111
 7629SOL    HW124328   6.435   7.593   8.847 -2.2055 -0.7683  0.7988
 7629SOL    HW224329   6.373   7.463   8.895 -0.2823 -2.3265 -0.7383
 7630SOL     OW24330   0.613   0.784   3.130 -1.0129 -0.0776 -0.5456
 7630SOL    HW124331   0.525   0.789   3.167 -0.1138 -0.8735  1.9114
 7630SOL    HW224332   0.610   0.707   3.073 -1.4068 -1.3455  1.1200
 7631SOL     OW24333   7.041   0.371   0.583 -0.4753  0.0894 -0.1880
 7631SOL    HW124334   7.004   0.287   0.555 -1.3691  0.5215 -0.3530
 7631SOL    HW224335   7.104   0.393   0.515 -0.8179 -0.0704 -0.5649
 7632SOL     OW24336   0.128   0.274  10.883 -0.3883 -0.0826 -0.5961
 7632SOL    HW124337   0.098   0.365  10.882 -1.9236 -0.5709 -1.0423
 7632SOL    HW224338   0.050   0.222  10.903  0.5418 -1.2934  0.0894
 7633SOL     OW24339   1.828   3.977   3.707  0.2883  0.0915  0.1069
 7633SOL    HW124340   1.866   3.891   3.686 -0.1863 -0.1272  0.1278
 7633SOL    HW224341   1.766   3.959   3.778 -0.3367  0.3335 -0.3733
 7634SOL     OW24342   7.782   3.392  12.267 -0.5128  0.3510 -0.1856
 7634SOL    HW124343   7.842   3.325  12.301  0.2421  1.5601  0.9292
 7634SOL    HW224344   7.701   3.377  12.316 -0.6940 -0.4134 -0.7068
 7635SOL     OW24345   7.085   4.453   1.862 -0.3900 -0.1573 -0.2246
 7635SOL    HW124346   7.064   4.533   1.911 -2.2541 -0.0780 -1.0612
 7635SOL    HW224347   7.113   4.391   1.928  0.7783  1.0641  0.4824
 7636SOL     OW24348   6.755   7.205   8.196  0.7414  0.2641 -0.0209
 7636SOL    HW124349   6.727   7.130   8.248 -1.2959  1.7111  1.0949
 7636SOL    HW224350   6.773   7.169   8.109  0.9379 -1.6652  0.7816
 7637SOL     OW24351   0.823   2.492   1.471 -0.0641  0.7091  0.3525
 7637SOL    HW124352   0.828   2.493   1.567  1.8412 -2.7434  0.4833
 7637SOL    HW224353   0.766   2.417   1.452  0.2200  0.8715 -1.2077
 7638SOL     OW24354   7.583   4.779   1.598  0.1563  0.7292 -0.0337
 7638SOL    HW124355   7.558   4.812   1.685  0.2918 -0.3514  0.4359
 7638SOL    HW224356   7.665   4.824   1.578  0.1757  0.9146  0.4434
 7639SOL     OW24357   5.849   2.913   2.220 -0.1134  0.3152  0.3468
 7639SOL    HW124358   5.920   2.854   2.244  0.1078  1.0827  1.6851
 7639SOL    HW224359   5.772   2.877   2.266 -0.2378  0.4005  0.2058
 7640SOL     OW24360   6.872   0.250   7.328 -0.2124  0.1266  0.0525
 7640SOL    HW124361   6.930   0.194   7.278 -0.1178  0.3158 -0.0479
 7640SOL    HW224362   6.884   0.222   7.419  1.2004  1.1921  0.2357
 7641SOL     OW24363   1.265   6.774   4.767 -0.1792  0.1076  0.3929
 7641SOL    HW124364   1.323   6.710   4.724  2.2224  1.6503  1.1217
 7641SOL    HW224365   1.284   6.764   4.860 -0.5638  1.1509  0.5917
 7642SOL     OW24366   1.068   3.058   2.470  0.0722  0.0030  0.1394
 7642SOL    HW124367   1.056   2.971   2.508 -0.4232 -0.3718 -0.8637
 7642SOL    HW224368   1.099   3.042   2.381 -0.7375  0.8180 -0.3124
 7643SOL     OW24369   0.242   7.085   3.801 -0.6193 -0.5722 -0.0410
 7643SOL    HW124370   0.318   7.124   3.844 -0.5314  0.1341 -0.8195
 7643SOL    HW224371   0.230   7.137   3.722 -2.2288 -0.3392  0.3275
 7644SOL     OW24372   2.675   2.784  11.764 -0.5457 -0.2399 -0.2233
 7644SOL    HW124373   2.684   2.793  11.859  1.0721  0.8465 -0.4397
 7644SOL    HW224374   2.748   2.728  11.738 -0.8937 -0.4127 -0.8494
 7645SOL     OW24375   2.643   1.797   7.261 -0.4793 -0.1049 -0.0548
 7645SOL    HW124376   2.601   1.779   7.176 -0.1873 -1.2721  0.0356
 7645SOL    HW224377   2.675   1.712   7.291  1.5084  0.6433  0.1208
 7646SOL     OW24378   6.030   4.483   9.073  0.1062 -0.0381 -0.0512
 7646SOL    HW124379   6.117   4.517   9.093 -0.3215 -0.2472  2.3756
 7646SOL    HW224380   6.043   4.390   9.058  0.5072  0.2115 -1.3939
 7647SOL     OW24381   1.111   5.322  12.456 -0.7323  0.1539 -0.2356
 7647SOL    HW124382   1.178   5.380  12.495 -0.5370 -0.9027  1.0838
 7647SOL    HW224383   1.032   5.341  12.506 -0.9303  0.0396 -0.5089
 7648SOL     OW24384   6.239   4.575  11.424 -0.1968 -0.2781  0.6249
 7648SOL    HW124385   6.174   4.591  11.356  1.2976 -0.2256 -0.8623
 7648SOL    HW224386   6.312   4.633  11.401  0.5910 -0.7175  1.9286
 7649SOL     OW24387   1.109   2.769   3.910  0.3426 -0.2070 -0.0059
 7649SOL    HW124388   1.146   2.731   3.830 -0.1650  1.4957 -1.1035
 7649SOL    HW224389   1.159   2.849   3.924 -0.7654  0.4482  0.3412
 7650SOL     OW24390   3.884   1.789   5.935 -0.8021  0.2087 -0.5085
 7650SOL    HW124391   3.967   1.817   5.897 -0.5494 -1.3382 -1.1919
 7650SOL    HW224392   3.905   1.768   6.026 -0.6166  0.5703 -0.4673
 7651SOL     OW24393   5.192   4.937   1.118 -0.7020 -0.1370  0.0576
 7651SOL    HW124394   5.176   4.970   1.030  0.2495  0.6240  0.1444
 7651SOL    HW224395   5.274   4.889   1.111 -1.0818 -0.8396  0.3518
 7652SOL     OW24396   5.135   5.254   3.060 -0.4859 -0.0484 -0.2927
 7652SOL    HW124397   5.089   5.219   3.136 -3.1997  0.2167 -1.7176
 7652SOL    HW224398   5.162   5.176   3.011 -0.9392 -0.1887 -0.3173
 7653SOL     OW24399   1.179   6.270  11.653  0.0206 -0.0700  0.0725
 7653SOL    HW124400   1.149   6.320  11.577  0.2608 -0.2721 -0.1563
 7653SOL    HW224401   1.183   6.179  11.623 -2.1601 -0.5485  0.9810
 7654SOL     OW24402   1.460   6.910   0.993  0.1617  0.6775 -0.3275
 7654SOL    HW124403   1.510   6.844   0.946  0.2385  1.0479 -0.7743
 7654SOL    HW224404   1.369   6.887   0.978  0.1288  1.7598 -2.1280
 7655SOL     OW24405   6.607   3.693   2.486 -0.3375 -0.2114 -0.0959
 7655SOL    HW124406   6.607   3.774   2.536  0.2628  0.0058 -0.4332
 7655SOL    HW224407   6.641   3.627   2.547  0.0766 -0.0148 -0.1125
 7656SOL     OW24408   0.131   2.330   0.898 -0.0991 -0.8066  0.3095
 7656SOL    HW124409   0.195   2.268   0.863  0.7528  0.5820 -0.6753
 7656SOL    HW224410   0.173   2.366   0.976  0.2894  0.0395 -0.2857
 7657SOL     OW24411   7.748   0.463   6.097  0.2753  0.0777  0.2742
 7657SOL    HW124412   7.823   0.443   6.041 -0.9487 -1.6373 -0.8869
 7657SOL    HW224413   7.733   0.381   6.146 -1.0307  0.2734  0.2247
 7658SOL     OW24414   0.625   2.310   4.457  0.3101 -0.3358  0.4781
 7658SOL    HW124415   0.551   2.260   4.423  1.3758 -0.8773 -1.1544
 7658SOL    HW224416   0.631   2.386   4.399  0.5813  0.1169  1.0807
 7659SOL     OW24417   1.027   0.779  10.435  0.1790 -0.4191 -0.1571
 7659SOL    HW124418   1.099   0.842  10.431  0.7202 -0.9239  1.0686
 7659SOL    HW224419   0.966   0.816  10.498 -0.0316 -0.5949 -0.2575
 7660SOL     OW24420   2.365   0.345  11.538  0.3686  0.3809  0.3017
 7660SOL    HW124421   2.437   0.356  11.600 -0.1267  1.1846  0.7519
 7660SOL    HW224422   2.286   0.342  11.593  0.0628 -0.6829 -0.1639
 7661SOL     OW24423   6.600   4.146   8.287 -0.0762 -0.0511  0.3646
 7661SOL    HW124424   6.553   4.106   8.360  0.0462  1.4740  1.3177
 7661SOL    HW224425   6.545   4.220   8.261  0.6082  0.3039 -0.1129
 7662SOL     OW24426   1.607   7.441   5.210 -0.1552 -0.0816 -0.1754
 7662SOL    HW124427   1.636   7.355   5.179  0.2313 -0.3061  0.7688
 7662SOL    HW224428   1.520   7.452   5.172 -0.6666 -1.3790  0.5359
 7663SOL     OW24429   3.313   4.193  10.205  0.1040 -0.5309 -0.0026
 7663SOL    HW124430   3.276   4.128  10.146 -1.0397 -0.3111  0.4435
 7663SOL    HW224431   3.287   4.164  10.292 -2.0624  1.4626  0.1201
 7664SOL     OW24432   3.705   3.505   0.950  0.4691 -0.2262  0.2480
 7664SOL    HW124433   3.778   3.455   0.914  1.4023  1.4716 -0.3484
 7664SOL    HW224434   3.745   3.586   0.982 -1.0590  0.4460  0.5558
 7665SOL     OW24435   4.860   6.402  11.352 -0.9260 -0.0531 -0.6869
 7665SOL    HW124436   4.781   6.379  11.401 -1.2491 -0.3807 -1.3477
 7665SOL    HW224437   4.842   6.372  11.263 -0.9645  1.8606 -1.3650
 7666SOL     OW24438   2.412   7.556   1.551  0.0747 -0.2059 -0.6616
 7666SOL    HW124439   2.413   7.585   1.642 -1.7760  0.4279 -0.8025
 7666SOL    HW224440   2.505   7.552   1.526  0.5609  1.0452  0.8029
 7667SOL     OW24441   6.757   6.144  11.968  0.5013  0.2731  0.4333
 7667SOL    HW124442   6.670   6.129  11.931  0.8283  0.7032 -0.5553
 7667SOL    HW224443   6.741   6.171  12.058 -0.4085  0.6021  0.1827
 7668SOL     OW24444   3.070   7.821   8.107  0.4582  0.3610 -0.1729
 7668SOL    HW124445   3.074   7.739   8.155 -1.4026 -0.4722 -1.3505
 7668SOL    HW224446   3.161   7.853   8.106  0.6287  0.4812  3.8231
 7669SOL     OW24447   5.020   5.747  11.120 -0.1863 -0.0383  0.7097
 7669SOL    HW124448   5.109   5.714  11.111 -0.0029  0.6548 -0.1001
 7669SOL    HW224449   5.030   5.831  11.165 -0.3353  0.4871 -0.2220
 7670SOL     OW24450   6.969   2.365   6.305 -0.3768  0.3923 -0.0985
 7670SOL    HW124451   7.049   2.320   6.279 -0.9922  0.3582 -2.1013
 7670SOL    HW224452   6.991   2.458   6.304 -0.3218  0.3761 -0.5502
 7671SOL     OW24453   1.698   5.595   4.830  0.2991 -0.3322 -0.1936
 7671SOL    HW124454   1.738   5.668   4.877  0.5216 -0.4879 -0.1417
 7671SOL    HW224455   1.604   5.615   4.830  0.0842 -1.1075  1.7112
 7672SOL     OW24456   1.833   4.787   5.134  0.2599  0.1774 -0.3311
 7672SOL    HW124457   1.827   4.714   5.072 -1.0235  0.8444 -1.0443
 7672SOL    HW224458   1.748   4.788   5.178  1.0101 -0.0316  1.1905
 7673SOL     OW24459   5.745   6.464  11.337  0.0110  0.0613  0.3004
 7673SOL    HW124460   5.827   6.428  11.373 -0.9236 -0.2941  2.1952
 7673SOL    HW224461   5.684   6.462  11.411 -1.8353 -0.0294 -1.1636
 7674SOL     OW24462   2.126   0.201   1.192  0.5049  0.4338 -0.2134
 7674SOL    HW124463   2.186   0.161   1.254 -0.0002 -0.4944 -0.3125
 7674SOL    HW224464   2.097   0.129   1.136  1.6124  1.3827 -2.0995
 7675SOL     OW24465   0.595   7.748  10.312 -0.6118 -0.1038  0.1054
 7675SOL    HW124466   0.610   7.825  10.258 -2.1677 -0.5160 -0.9561
 7675SOL    HW224467   0.647   7.764  10.391  0.1450  1.3989 -0.6579
 7676SOL     OW24468   5.628   6.068  11.912  0.5457 -0.0124  0.7644
 7676SOL    HW124469   5.603   6.123  11.987  0.6246 -0.1945  0.9229
 7676SOL    HW224470   5.606   5.979  11.939 -0.1122 -0.0019  0.2871
 7677SOL     OW24471   4.423   3.931  11.804  0.3276  0.1533 -0.4029
 7677SOL    HW124472   4.515   3.956  11.806  0.4925 -0.3834 -1.0288
 7677SOL    HW224473   4.379   4.003  11.758  0.6981 -0.3656 -1.6098
 7678SOL     OW24474   1.815   1.812   4.659  0.2086  0.0173 -0.3284
 7678SOL    HW124475   1.799   1.722   4.688 -0.2179  0.5232  1.1113
 7678SOL    HW224476   1.893   1.807   4.605 -0.3905 -1.3641 -1.1133
 7679SOL     OW24477   4.528   7.529   1.312 -0.4875  0.6353 -0.3378
 7679SOL    HW124478   4.581   7.609   1.311 -1.6315  1.4346 -0.0051
 7679SOL    HW224479   4.452   7.552   1.258 -1.6635  0.3823  1.1627
 7680SOL     OW24480   3.278   0.231   3.831  0.3922  0.5310 -0.2184
 7680SOL    HW124481   3.263   0.142   3.799 -0.0800  0.6614 -0.3620
 7680SOL    HW224482   3.321   0.218   3.916 -0.1526  0.1551  0.0050
 7681SOL     OW24483   6.471   2.534  10.926 -0.3880 -0.3090  0.1713
 7681SOL    HW124484   6.420   2.613  10.942 -0.5321 -0.1637 -0.9374
 7681SOL    HW224485   6.452   2.511  10.835 -0.0461 -1.4016  0.3610
 7682SOL     OW24486   6.942   3.585  11.038 -0.3571  0.1743  0.1352
 7682SOL    HW124487   6.909   3.505  10.998  1.4259 -0.5711  0.0329
 7682SOL    HW224488   7.034   3.566  11.057 -0.0530  1.9818  0.7024
 7683SOL     OW24489   0.053   7.944  11.588 -0.1174 -0.1506 -0.1892
 7683SOL    HW124490  -0.036   7.928  11.620 -0.4462 -0.0817 -1.0280
 7683SOL    HW224491   0.054   8.037  11.567 -0.1500 -0.3356 -1.0530
 7684SOL     OW24492   7.899   6.818   9.934  0.1205 -0.3725 -0.0696
 7684SOL    HW124493   7.990   6.830   9.960 -0.7133  1.8718  2.2483
 7684SOL    HW224494   7.899   6.826   9.839  2.5176 -2.3595 -0.3330
 7685SOL     OW24495   0.905   0.987   1.271 -0.0115  0.4290 -0.3756
 7685SOL    HW124496   0.950   0.959   1.351  0.0020  1.7709  0.1075
 7685SOL    HW224497   0.864   1.070   1.294 -0.7154  0.4251 -1.5295
 7686SOL     OW24498   4.044   1.018   2.365 -0.1303  0.2051 -0.1720
 7686SOL    HW124499   4.037   0.939   2.311  0.5044  0.5412 -0.7810
 7686SOL    HW224500   4.070   0.987   2.451  1.9775 -0.1534 -0.8805
 7687SOL     OW24501   0.934   5.793  11.834  0.0925  0.1066 -0.8548
 7687SOL    HW124502   0.985   5.856  11.784 -0.8777  1.8668  0.2554
 7687SOL    HW224503   0.999   5.737  11.876  1.0760  1.3136 -0.6966
 7688SOL     OW24504   5.194   2.151   5.836  0.1062  0.3876 -0.3918
 7688SOL    HW124505   5.172   2.059   5.851 -1.2606  0.2547 -2.7702
 7688SOL    HW224506   5.139   2.199   5.898 -0.0333 -0.3476  0.0715
 7689SOL     OW24507   0.049   0.950   4.929 -0.1370  0.2609 -0.5923
 7689SOL    HW124508   0.112   0.879   4.921 -2.6846 -2.1426 -1.0665
 7689SOL    HW224509   0.073   0.996   5.010  2.2172 -0.4455 -0.8402
 7690SOL     OW24510   5.208   4.346   2.451  0.0865  0.3178  0.2109
 7690SOL    HW124511   5.299   4.334   2.424  0.2159  3.1571 -0.9190
 7690SOL    HW224512   5.213   4.392   2.535 -0.3680 -1.8428  1.4975
 7691SOL     OW24513   2.351   6.546   9.072 -0.5974  0.2094 -0.0018
 7691SOL    HW124514   2.333   6.620   9.130 -1.3359  0.7709 -0.9022
 7691SOL    HW224515   2.407   6.583   9.004 -2.1688  0.3822 -1.2891
 7692SOL     OW24516   6.397   4.515   4.474  0.3703 -0.3339 -0.1032
 7692SOL    HW124517   6.311   4.527   4.435  0.5509 -0.5831 -0.5921
 7692SOL    HW224518   6.384   4.452   4.544  0.3508 -1.2534 -0.9137
 7693SOL     OW24519   4.139   2.274   6.000 -0.1287  0.4139  0.2300
 7693SOL    HW124520   4.147   2.330   5.923  2.5599  0.2202  0.2877
 7693SOL    HW224521   4.198   2.201   5.984  1.0761  0.7235  2.7442
 7694SOL     OW24522   6.596   2.242   0.351 -0.1961 -0.1123  0.9644
 7694SOL    HW124523   6.599   2.147   0.361 -2.0965 -0.8360 -3.2113
 7694SOL    HW224524   6.526   2.270   0.411 -1.1506 -1.7258  0.6579
 7695SOL     OW24525   3.389   0.082   6.241 -0.0846 -0.1396  0.1176
 7695SOL    HW124526   3.350   0.168   6.225 -1.2425 -0.9178 -1.5275
 7695SOL    HW224527   3.334   0.043   6.308 -0.3085 -0.0722 -0.0256
 7696SOL     OW24528   2.886   2.235   6.296 -0.4992  0.6653 -0.5972
 7696SOL    HW124529   2.922   2.151   6.269  0.8127  2.0330 -3.5620
 7696SOL    HW224530   2.951   2.270   6.357 -0.4839  0.0325 -0.2428
 7697SOL     OW24531   6.833   6.754   0.897 -0.1991 -0.4949 -0.5417
 7697SOL    HW124532   6.834   6.848   0.912 -1.7132 -0.7744  1.7854
 7697SOL    HW224533   6.855   6.744   0.805 -0.7046  2.1582 -1.0206
 7698SOL     OW24534   4.740   6.925   4.199 -0.6969 -0.0176 -0.0058
 7698SOL    HW124535   4.807   6.959   4.258  0.0916 -0.9098 -0.3650
 7698SOL    HW224536   4.747   6.830   4.206 -0.3833 -0.1600 -1.7263
 7699SOL     OW24537   4.471   7.474   3.312 -0.3779  0.2755  0.4451
 7699SOL    HW124538   4.465   7.531   3.389 -1.3664 -0.3441  0.8582
 7699SOL    HW224539   4.381   7.471   3.278 -0.0644  0.0759 -0.3953
 7700SOL     OW24540   2.293   3.881  11.249  0.4363 -0.0704 -0.5711
 7700SOL    HW124541   2.343   3.905  11.327  0.4948 -1.5476 -0.1126
 7700SOL    HW224542   2.277   3.787  11.259 -3.8135  0.5128  0.1391
 7701SOL     OW24543   1.875   3.118   5.177 -0.5691  0.1301 -0.9319
 7701SOL    HW124544   1.956   3.076   5.147  0.4894  1.7210 -0.4298
 7701SOL    HW224545   1.877   3.205   5.136 -0.6947  1.1590  1.1208
 7702SOL     OW24546   0.387   4.619  11.721  0.7332 -0.0413 -0.0045
 7702SOL    HW124547   0.345   4.649  11.802  1.6255  0.5769  0.2412
 7702SOL    HW224548   0.321   4.633  11.653  0.6261  1.1797  0.3313
 7703SOL     OW24549   4.275   4.305   9.368 -0.2986  0.2785  0.2109
 7703SOL    HW124550   4.349   4.327   9.311  0.3322  0.3383  1.0375
 7703SOL    HW224551   4.314   4.288   9.453 -1.1762 -0.3277  0.5120
 7704SOL     OW24552   4.255   5.852   9.493  0.1848 -0.4434  0.2621
 7704SOL    HW124553   4.310   5.928   9.472  2.8727 -1.6872  2.1476
 7704SOL    HW224554   4.183   5.856   9.430  2.1547  1.6176 -2.0711
 7705SOL     OW24555   6.138   7.190   7.617  0.0643 -0.8209  0.1141
 7705SOL    HW124556   6.208   7.130   7.644 -1.1779 -2.9381 -1.1230
 7705SOL    HW224557   6.087   7.204   7.697  1.6510  0.5693  0.9819
 7706SOL     OW24558   1.592   5.263   2.431 -0.0141 -0.8095  0.0491
 7706SOL    HW124559   1.614   5.243   2.522 -0.9923  0.2933  0.5568
 7706SOL    HW224560   1.524   5.199   2.409 -0.5103 -0.4323  0.4498
 7707SOL     OW24561   2.402   6.690   7.313 -0.2811 -0.3514 -0.0550
 7707SOL    HW124562   2.436   6.752   7.249  0.7410  1.2824  1.9555
 7707SOL    HW224563   2.311   6.718   7.328 -0.5708 -0.8306 -0.8579
 7708SOL     OW24564   4.026   2.687   3.347  0.2085 -0.2435  0.2989
 7708SOL    HW124565   3.986   2.626   3.285 -0.7937  0.6973 -0.0067
 7708SOL    HW224566   3.963   2.758   3.355  0.3040 -0.3372  2.4230
 7709SOL     OW24567   0.095   3.738   5.961 -0.5430 -0.4155  0.5947
 7709SOL    HW124568   0.005   3.758   5.938 -0.6474 -1.3220  0.1883
 7709SOL    HW224569   0.148   3.773   5.890 -0.6419 -0.6218  0.4198
 7710SOL     OW24570   1.716   1.148   2.245  0.4870 -0.2737  0.2198
 7710SOL    HW124571   1.722   1.069   2.298  0.2465 -0.7876 -0.5127
 7710SOL    HW224572   1.746   1.218   2.303 -0.6638 -0.6828  1.3431
 7711SOL     OW24573   6.281   0.700   4.056 -0.0922 -0.3863  0.3670
 7711SOL    HW124574   6.195   0.742   4.050 -0.7046 -1.7473 -0.6181
 7711SOL    HW224575   6.341   0.773   4.074 -1.2238  0.8122 -0.5008
 7712SOL     OW24576   0.499   7.860   7.677  0.1032  0.2109 -0.0762
 7712SOL    HW124577   0.503   7.859   7.581 -1.9802 -0.5431 -0.1983
 7712SOL    HW224578   0.478   7.950   7.699  0.6329  0.3985 -0.3088
 7713SOL     OW24579   2.949   7.076   4.091 -0.4232 -0.1111 -0.3765
 7713SOL    HW124580   3.006   7.008   4.128 -2.5564 -0.9953  1.4746
 7713SOL    HW224581   2.882   7.028   4.043 -1.4994  0.7105  0.2643
 7714SOL     OW24582   0.960   1.836   1.704 -0.0393 -0.3885  0.3396
 7714SOL    HW124583   0.916   1.858   1.787  0.9004 -0.3148  0.8262
 7714SOL    HW224584   1.024   1.769   1.728  0.0657 -0.5567 -0.3871
 7715SOL     OW24585   1.649   3.480   3.770 -0.3916  0.0485 -0.4955
 7715SOL    HW124586   1.683   3.428   3.843 -0.3825  1.3003  0.4318
 7715SOL    HW224587   1.724   3.532   3.741 -0.6471  0.2908 -0.7288
 7716SOL     OW24588   7.527   4.063  11.141  0.4663  0.3027  0.2723
 7716SOL    HW124589   7.495   4.119  11.211  0.3419  0.3564  0.1727
 7716SOL    HW224590   7.448   4.034  11.095  0.4414 -0.8147  0.9699
 7717SOL     OW24591   3.697   1.226   1.560  0.2943  0.0061 -0.0161
 7717SOL    HW124592   3.641   1.300   1.578  0.0250 -0.1501 -0.2065
 7717SOL    HW224593   3.781   1.249   1.600  1.2854  1.9219 -2.9114
 7718SOL     OW24594   1.368   3.112   9.958 -0.3537  0.1392 -0.1102
 7718SOL    HW124595   1.376   3.099   9.864 -1.1298 -3.8817  0.2175
 7718SOL    HW224596   1.286   3.161   9.969 -0.1115  0.8964 -1.4768
 7719SOL     OW24597   3.360   7.699   5.404 -0.0580 -0.0553 -0.5155
 7719SOL    HW124598   3.335   7.659   5.487  0.8235  2.4803  1.1020
 7719SOL    HW224599   3.441   7.656   5.380  1.0338  0.8504  1.3301
 7720SOL     OW24600   6.129   4.431   7.174  0.3639  0.4505 -0.2286
 7720SOL    HW124601   6.081   4.380   7.239  0.2094 -0.7575 -1.2555
 7720SOL    HW224602   6.064   4.452   7.107  1.0502 -0.4375 -1.1914
 7721SOL     OW24603   1.559   5.556   4.259 -0.1714 -0.0531 -0.7149
 7721SOL    HW124604   1.630   5.606   4.219  0.6098 -0.9884 -0.5163
 7721SOL    HW224605   1.532   5.494   4.190 -0.6484  0.1496 -0.7130
 7722SOL     OW24606   3.190   1.344   5.585  0.1477 -0.0522  0.0139
 7722SOL    HW124607   3.164   1.360   5.676 -1.0943 -1.3767 -0.0641
 7722SOL    HW224608   3.282   1.368   5.581 -0.1770  1.5989  1.2028
 7723SOL     OW24609   5.665   1.761   4.155 -0.5178  0.3455  0.6729
 7723SOL    HW124610   5.607   1.686   4.144  1.6981 -1.1756 -1.7682
 7723SOL    HW224611   5.614   1.836   4.125 -1.4256 -0.8602 -0.8855
 7724SOL     OW24612   2.321   4.028   0.436 -0.0928  0.5595 -0.3784
 7724SOL    HW124613   2.357   4.089   0.370  0.5095  0.8463  0.1996
 7724SOL    HW224614   2.350   3.942   0.406 -1.5671  0.4510 -1.6034
 7725SOL     OW24615   5.366   0.516   8.351 -0.2473 -0.1867 -0.7506
 7725SOL    HW124616   5.418   0.463   8.291 -0.6551 -0.6113 -0.7258
 7725SOL    HW224617   5.424   0.530   8.427 -0.4562 -1.3536 -0.3632
 7726SOL     OW24618   6.688   5.849   5.138 -0.5990 -0.4169 -0.3739
 7726SOL    HW124619   6.667   5.787   5.207 -1.3875 -0.1591 -0.3668
 7726SOL    HW224620   6.691   5.934   5.182 -1.6286 -0.1831 -0.7373
 7727SOL     OW24621   0.532   6.636   3.041 -0.1531 -0.2454 -0.2794
 7727SOL    HW124622   0.521   6.705   3.105  1.7794  0.4704 -0.6383
 7727SOL    HW224623   0.447   6.627   2.999 -1.1036  0.1365  1.4951
 7728SOL     OW24624   4.187   2.771   1.307 -0.2313 -0.3715  0.3805
 7728SOL    HW124625   4.240   2.810   1.237  1.8866 -1.3602  1.3214
 7728SOL    HW224626   4.114   2.831   1.319 -1.3534 -0.7528 -3.4354
 7729SOL     OW24627   7.853   7.948   9.927 -0.2515 -0.3538 -0.0277
 7729SOL    HW124628   7.896   7.967   9.844  1.2576  1.6369  1.1071
 7729SOL    HW224629   7.776   8.004   9.928 -0.1024 -0.1470  0.0211
 7730SOL     OW24630   0.003   3.859   0.649 -0.4665 -0.3889  0.0192
 7730SOL    HW124631  -0.083   3.873   0.608  0.1133  1.8984 -0.5553
 7730SOL    HW224632   0.000   3.912   0.729  0.1701 -0.8892  0.3809
 7731SOL     OW24633   7.916   7.360   8.793  0.0348 -0.3426  0.3870
 7731SOL    HW124634   7.955   7.441   8.826 -0.8034 -0.1619  0.9760
 7731SOL    HW224635   7.933   7.362   8.699  0.3691  0.3242  0.4550
 7732SOL     OW24636   3.661   4.680   2.822 -0.2321  0.2850 -0.2590
 7732SOL    HW124637   3.682   4.681   2.916 -0.3965 -0.0686 -0.2213
 7732SOL    HW224638   3.567   4.663   2.818 -0.1534 -0.0856 -0.5052
 7733SOL     OW24639   6.470   2.607   7.721 -0.2306 -0.3293  0.1599
 7733SOL    HW124640   6.392   2.659   7.706  0.0114  0.3331  1.0632
 7733SOL    HW224641   6.438   2.522   7.751 -0.6319  0.4248  2.0257
 7734SOL     OW24642   7.299   7.223   0.839 -0.3319  0.4723 -0.2343
 7734SOL    HW124643   7.236   7.279   0.793 -0.8989  1.2353  1.3998
 7734SOL    HW224644   7.359   7.284   0.881  0.7983 -0.2338 -0.7603
 7735SOL     OW24645   4.771   2.516   9.344 -0.1742  0.3761 -0.0440
 7735SOL    HW124646   4.692   2.501   9.396 -1.2416  0.5506 -1.5724
 7735SOL    HW224647   4.780   2.438   9.290 -0.1463  0.9733 -0.9244
 7736SOL     OW24648   4.682   1.156   5.745  0.3899  0.3441  0.0243
 7736SOL    HW124649   4.648   1.245   5.737 -0.2928  0.1845  0.9788
 7736SOL    HW224650   4.753   1.163   5.809  0.7376  0.3009 -0.3519
 7737SOL     OW24651   1.020   1.819   7.051  0.0910 -0.4495  0.2245
 7737SOL    HW124652   0.990   1.838   7.139  0.3008 -0.6991  0.3531
 7737SOL    HW224653   0.947   1.772   7.010 -0.0828 -0.1565  0.1988
 7738SOL     OW24654   7.885   4.641   3.828 -0.6940 -0.2907 -0.1802
 7738SOL    HW124655   7.839   4.715   3.869 -0.7353 -0.2207 -0.3537
 7738SOL    HW224656   7.970   4.677   3.804 -1.6295  0.4614 -2.6722
 7739SOL     OW24657   1.317   2.160  10.177  0.2986 -0.1644 -0.3889
 7739SOL    HW124658   1.403   2.159  10.220 -0.6160 -1.1483  1.5112
 7739SOL    HW224659   1.333   2.120  10.092  1.9782  0.9823 -0.6830
 7740SOL     OW24660   0.399   1.483   8.865  0.6396  0.5140  0.1629
 7740SOL    HW124661   0.353   1.404   8.893  0.9076  0.0555 -0.6854
 7740SOL    HW224662   0.330   1.549   8.858  0.2865  0.1325  0.0197
 7741SOL     OW24663   0.379   1.676   4.472 -0.3538 -0.3344 -0.2855
 7741SOL    HW124664   0.337   1.700   4.555  0.4959  0.7320 -0.1484
 7741SOL    HW224665   0.449   1.740   4.461  0.7814 -1.6192 -0.8696
 7742SOL     OW24666   1.881   6.620  12.432 -0.3254 -0.7118  0.6999
 7742SOL    HW124667   1.884   6.560  12.358  0.4780  0.3319 -0.1525
 7742SOL    HW224668   1.957   6.597  12.485 -1.1688 -1.7784  1.4943
 7743SOL     OW24669   2.640   2.908   4.959 -0.0747  0.1948 -0.1354
 7743SOL    HW124670   2.696   2.845   5.005 -0.8600 -0.7301 -0.4139
 7743SOL    HW224671   2.551   2.879   4.978 -0.4321 -0.1932 -2.1563
 7744SOL     OW24672   2.033   3.380  10.032  0.2484  0.4341  0.5712
 7744SOL    HW124673   2.075   3.466  10.028  1.4181 -0.0678  1.3749
 7744SOL    HW224674   1.941   3.397  10.011  0.7270  1.6617 -0.6875
 7745SOL     OW24675   6.646   3.734   7.856 -0.1364  0.2724  0.7055
 7745SOL    HW124676   6.568   3.742   7.911 -1.2566  0.8864 -0.8891
 7745SOL    HW224677   6.683   3.823   7.854 -0.2782  0.3246  0.2392
 7746SOL     OW24678   7.515   3.634   1.630  0.7462  0.3543  0.3158
 7746SOL    HW124679   7.435   3.613   1.679  0.9493  0.7569  0.8252
 7746SOL    HW224680   7.504   3.589   1.546 -1.1293  2.3465 -0.5940
 7747SOL     OW24681   2.057   2.658   7.541 -0.0198  0.1872  0.0489
 7747SOL    HW124682   2.004   2.588   7.579  1.9401 -2.3387 -1.5358
 7747SOL    HW224683   2.111   2.690   7.614 -1.9148  1.1383  1.1113
 7748SOL     OW24684   0.355   1.646   0.593  0.2860 -0.6162 -0.2908
 7748SOL    HW124685   0.319   1.559   0.609 -0.3985 -0.2995 -0.0881
 7748SOL    HW224686   0.280   1.705   0.603  0.5117 -0.1061 -1.4569
 7749SOL     OW24687   0.744   5.303   7.646  0.0430 -0.6370  0.3286
 7749SOL    HW124688   0.704   5.359   7.580 -0.2431 -1.0330  0.1595
 7749SOL    HW224689   0.824   5.269   7.605 -0.5954 -1.5896 -0.1516
 7750SOL     OW24690   3.947   4.947   3.173  0.3981 -0.2698 -0.6942
 7750SOL    HW124691   4.021   5.003   3.150 -1.4553  2.1588 -1.1420
 7750SOL    HW224692   3.981   4.890   3.243  2.9222  0.0447 -1.5738
 7751SOL     OW24693   4.908   2.472   9.666  0.3159 -0.5732  0.3787
 7751SOL    HW124694   4.981   2.492   9.607  0.0901 -0.8121  0.0117
 7751SOL    HW224695   4.915   2.536   9.736 -0.7547  1.1775 -1.0540
 7752SOL     OW24696   2.096   3.430   4.569  0.0963 -0.2510 -0.3277
 7752SOL    HW124697   2.175   3.478   4.594  0.1352  0.5185 -1.8593
 7752SOL    HW224698   2.117   3.389   4.485  0.0513 -3.0046  0.8629
 7753SOL     OW24699   0.503   2.693  11.108  0.1102 -0.0594  0.2999
 7753SOL    HW124700   0.428   2.707  11.050 -0.2209  0.2855  0.8125
 7753SOL    HW224701   0.529   2.780  11.136  0.2563 -0.2257  0.6951
 7754SOL     OW24702   6.748   6.905   3.113  0.9704 -0.4746  0.1847
 7754SOL    HW124703   6.799   6.986   3.104 -0.4363  0.4133 -0.2043
 7754SOL    HW224704   6.715   6.907   3.203  0.9184 -0.5955  0.1689
 7755SOL     OW24705   3.561   5.985   6.213 -0.0839  0.4811  0.2136
 7755SOL    HW124706   3.646   5.994   6.255  0.0245 -0.6284  0.2690
 7755SOL    HW224707   3.542   5.891   6.217 -0.8167  0.5713 -0.7647
 7756SOL     OW24708   5.621   7.217   6.661 -0.6805  0.0939 -0.3474
 7756SOL    HW124709   5.708   7.246   6.690 -1.6494  0.3064  2.7571
 7756SOL    HW224710   5.594   7.283   6.597  1.1825  0.3168 -0.9829
 7757SOL     OW24711   1.400   3.884   7.938  0.3857 -0.0945  0.2668
 7757SOL    HW124712   1.364   3.973   7.935 -0.0264 -0.2839 -2.1826
 7757SOL    HW224713   1.495   3.898   7.944  0.3292  0.5197 -0.1658
 7758SOL     OW24714   5.578   4.685   8.237  0.3627  0.5611 -0.4002
 7758SOL    HW124715   5.521   4.733   8.177  0.1719  2.6009  1.2831
 7758SOL    HW224716   5.666   4.698   8.202  0.1297  0.4494 -1.0424
 7759SOL     OW24717   1.006   7.569  10.986  0.2083  0.0051 -0.4608
 7759SOL    HW124718   0.988   7.528  11.071 -1.8709 -0.2506 -0.9716
 7759SOL    HW224719   1.034   7.497  10.930  0.4408 -0.0298 -0.2985
 7760SOL     OW24720   2.548   4.956   5.850  0.0268 -0.4889  0.2500
 7760SOL    HW124721   2.463   4.925   5.881 -0.1509 -0.2048  0.0489
 7760SOL    HW224722   2.610   4.924   5.916 -0.4455  0.8194  1.3909
 7761SOL     OW24723   5.046   2.342   6.501  0.2364 -0.4646  0.1983
 7761SOL    HW124724   5.006   2.275   6.557  0.7633 -0.8972  0.0671
 7761SOL    HW224725   4.978   2.408   6.491  0.0951 -0.4248  1.2648
 7762SOL     OW24726   5.790   7.937   7.473  0.0539 -0.0754  0.1681
 7762SOL    HW124727   5.878   7.903   7.457 -0.3328 -0.9250 -0.2479
 7762SOL    HW224728   5.751   7.944   7.386 -0.1770  0.6216  0.3229
 7763SOL     OW24729   4.554   7.055   8.448  0.2164 -0.0336 -0.4118
 7763SOL    HW124730   4.577   7.005   8.369 -0.2891  2.0391 -1.9471
 7763SOL    HW224731   4.465   7.026   8.469 -0.2033  0.4165 -1.4925
 7764SOL     OW24732   7.571   3.477   6.702  0.7691 -0.0762 -0.0243
 7764SOL    HW124733   7.545   3.525   6.624 -1.5422 -0.6628  0.3157
 7764SOL    HW224734   7.524   3.520   6.774  1.6544 -0.4951  0.8376
 7765SOL     OW24735   6.522   3.255   8.598  0.2693 -0.7204 -0.0385
 7765SOL    HW124736   6.487   3.318   8.661 -0.7338 -1.6730  0.4027
 7765SOL    HW224737   6.613   3.243   8.624  0.2300 -0.0994  0.4047
 7766SOL     OW24738   2.780   5.450   5.458 -0.0834  0.0390 -0.0468
 7766SOL    HW124739   2.689   5.425   5.445 -0.6929  1.4869  1.1767
 7766SOL    HW224740   2.793   5.448   5.553  0.6684  1.3604 -0.0845
 7767SOL     OW24741   3.010   2.310   2.257 -0.2356  0.2006  0.2924
 7767SOL    HW124742   2.973   2.396   2.276 -0.8191 -0.4591  2.4442
 7767SOL    HW224743   3.093   2.309   2.305  0.1691 -0.1449 -0.4008
 7768SOL     OW24744   4.276   4.228   6.313  0.0755  0.0813 -0.2919
 7768SOL    HW124745   4.344   4.292   6.297  0.9366 -0.9107 -0.7273
 7768SOL    HW224746   4.251   4.197   6.226 -1.2833  0.7666 -0.1753
 7769SOL     OW24747   0.292   7.581   1.289  0.1450  0.6442 -0.0376
 7769SOL    HW124748   0.280   7.649   1.222  0.5447  0.6565 -0.1002
 7769SOL    HW224749   0.309   7.630   1.370  0.9732  0.6245 -0.1862
 7770SOL     OW24750   4.477   0.797   2.518  0.0128  0.0703 -0.1316
 7770SOL    HW124751   4.385   0.817   2.533  0.1991  2.0957 -1.3553
 7770SOL    HW224752   4.499   0.732   2.585 -2.7749 -1.9883 -1.0388
 7771SOL     OW24753   0.091   3.390   7.688 -0.3045 -0.5148  0.2537
 7771SOL    HW124754   0.118   3.334   7.615 -1.2514 -0.6488 -0.0083
 7771SOL    HW224755  -0.004   3.392   7.682 -0.3350  0.3056  0.8754
 7772SOL     OW24756   3.679   0.884   6.028  0.2033  0.1287  0.0587
 7772SOL    HW124757   3.689   0.789   6.018 -3.4883 -0.3923  0.0196
 7772SOL    HW224758   3.623   0.910   5.954  0.3962  2.1869  0.5743
 7773SOL     OW24759   7.642   4.241   7.722  0.1650 -0.2353 -0.2658
 7773SOL    HW124760   7.692   4.166   7.753  0.8322  0.4506  0.3703
 7773SOL    HW224761   7.558   4.234   7.769 -0.4067 -1.4192 -1.3828
 7774SOL     OW24762   1.390   0.038   6.590  0.6365 -0.3506  0.3725
 7774SOL    HW124763   1.374   0.040   6.495 -0.0844 -0.7578  0.4785
 7774SOL    HW224764   1.380   0.129   6.618 -1.5028 -0.5558  0.4153
 7775SOL     OW24765   2.226   7.731   4.415  0.0088 -0.8835 -0.0130
 7775SOL    HW124766   2.247   7.733   4.508  0.8452  0.8227 -0.1925
 7775SOL    HW224767   2.145   7.781   4.407  1.1426  0.9947 -0.4136
 7776SOL     OW24768   2.308   6.578   0.760 -0.1561 -0.3074  0.2272
 7776SOL    HW124769   2.277   6.637   0.692  0.8609  0.0191  0.0195
 7776SOL    HW224770   2.325   6.495   0.715 -0.9953 -0.5886  0.4026
 7777SOL     OW24771   5.465   7.307  12.230  0.1180  0.0768  0.1421
 7777SOL    HW124772   5.410   7.379  12.197 -0.8397 -2.1653 -3.8104
 7777SOL    HW224773   5.554   7.340  12.222 -0.2549  0.6833 -2.2880
 7778SOL     OW24774   3.211   0.502   8.435  0.3849 -0.8479 -0.1314
 7778SOL    HW124775   3.137   0.555   8.463  1.0277 -0.6298  1.2090
 7778SOL    HW224776   3.237   0.541   8.351 -1.0859 -1.0258 -0.6963
 7779SOL     OW24777   3.715   1.153   4.833 -0.4957 -0.2551 -0.0934
 7779SOL    HW124778   3.647   1.219   4.845 -0.0091  0.3487 -0.5721
 7779SOL    HW224779   3.670   1.079   4.791 -0.5797  0.7379 -1.8741
 7780SOL     OW24780   5.673   5.967  11.039  0.1152 -0.3376  0.2249
 7780SOL    HW124781   5.696   5.967  11.132 -2.2282  1.1088  0.9078
 7780SOL    HW224782   5.613   5.893  11.029 -0.0721 -0.1587  0.0031
 7781SOL     OW24783   4.505   2.897   3.901 -0.1771 -0.6096  0.7086
 7781SOL    HW124784   4.456   2.889   3.983 -0.1176 -2.4966  0.5954
 7781SOL    HW224785   4.500   2.811   3.860 -0.6588  0.4023 -1.5641
 7782SOL     OW24786   2.950   1.704   2.939 -0.3619 -0.0741  0.2687
 7782SOL    HW124787   2.882   1.649   2.900  0.5790  0.4088 -2.2171
 7782SOL    HW224788   3.015   1.643   2.972 -0.1371 -0.4902 -0.9269
 7783SOL     OW24789   7.147   1.060   4.279  0.7966  0.4900  0.8441
 7783SOL    HW124790   7.211   1.022   4.218  0.2501 -1.1483  1.2344
 7783SOL    HW224791   7.182   1.147   4.300  1.2147  0.9426 -1.4557
 7784SOL     OW24792   2.304   2.855   8.663  0.3344 -0.3338 -0.3508
 7784SOL    HW124793   2.293   2.843   8.757  0.6094  1.5714 -0.0405
 7784SOL    HW224794   2.395   2.830   8.645 -0.1811 -2.3188 -0.4473
 7785SOL     OW24795   0.604   6.542   5.485  0.3909  0.0187  0.1787
 7785SOL    HW124796   0.540   6.574   5.421  0.3859  1.9161  1.0502
 7785SOL    HW224797   0.688   6.543   5.438  0.3140  0.9635  0.0467
 7786SOL     OW24798   1.642   4.547   0.308  0.2495 -0.5441 -0.5027
 7786SOL    HW124799   1.623   4.617   0.371 -0.6030 -0.8047 -0.4609
 7786SOL    HW224800   1.606   4.579   0.225 -0.3583 -1.0343 -0.4308
 7787SOL     OW24801   0.382   5.699  12.313  0.1637 -0.0612  0.2692
 7787SOL    HW124802   0.309   5.746  12.352 -0.0684 -0.2947  0.1207
 7787SOL    HW224803   0.443   5.768  12.286 -0.7549  0.2460 -1.1240
 7788SOL     OW24804   2.172   6.530   0.320  0.1333  0.3477 -0.1879
 7788SOL    HW124805   2.187   6.614   0.277  1.1463  0.0437 -0.4726
 7788SOL    HW224806   2.254   6.481   0.306 -0.2096 -0.4544  0.4886
 7789SOL     OW24807   7.478   7.010   2.320  0.3000  0.0594  0.0666
 7789SOL    HW124808   7.499   7.072   2.390  0.5275  0.8544 -0.6866
 7789SOL    HW224809   7.441   7.064   2.251 -1.3655 -0.9188  0.1571
 7790SOL     OW24810   2.220   5.455   9.724 -0.1893  0.6620  0.0885
 7790SOL    HW124811   2.299   5.408   9.751  0.0121  0.9736  0.0516
 7790SOL    HW224812   2.238   5.483   9.634 -0.7694 -0.1827 -0.3057
 7791SOL     OW24813   3.290   6.939   7.589 -0.1148 -0.0906 -0.4623
 7791SOL    HW124814   3.203   6.905   7.610 -0.5581  1.0910 -0.2607
 7791SOL    HW224815   3.273   7.024   7.546  0.9491  0.7385  0.6768
 7792SOL     OW24816   5.828   1.284   3.340 -0.1169  0.0688 -0.6747
 7792SOL    HW124817   5.911   1.327   3.357 -0.3164  0.2922 -0.2585
 7792SOL    HW224818   5.852   1.196   3.310  0.2571  0.0141 -0.2216
 7793SOL     OW24819   5.768   4.058   7.019  0.3558 -0.0569 -0.1118
 7793SOL    HW124820   5.745   4.129   6.960  0.9005  0.8953  0.7892
 7793SOL    HW224821   5.809   3.992   6.962  1.0312  0.9093 -0.7813
 7794SOL     OW24822   5.875   1.118   8.376  0.0910  0.2162  0.0402
 7794SOL    HW124823   5.803   1.107   8.439  0.5940 -0.9259  0.4480
 7794SOL    HW224824   5.855   1.056   8.306  0.0602  0.7650 -0.4459
 7795SOL     OW24825   6.359   1.204   6.572 -0.1884 -0.1454  0.1710
 7795SOL    HW124826   6.345   1.121   6.618 -0.5274  0.7164  1.6901
 7795SOL    HW224827   6.281   1.215   6.517  0.0299 -0.9823 -0.3316
 7796SOL     OW24828   5.160   4.747   6.440  0.3943  0.9651 -0.5783
 7796SOL    HW124829   5.068   4.730   6.417  0.4595 -1.3907  0.5634
 7796SOL    HW224830   5.155   4.816   6.507 -0.6841  0.0283  0.3617
 7797SOL     OW24831   5.958   7.059   9.917 -0.3529  0.4328 -0.2477
 7797SOL    HW124832   5.980   7.139   9.869  0.6772 -1.0597 -2.4662
 7797SOL    HW224833   5.907   7.007   9.855 -0.2238 -1.0045  0.7847
 7798SOL     OW24834   7.165   1.784   7.115  0.4681 -0.1748 -0.9747
 7798SOL    HW124835   7.253   1.818   7.133  0.1144 -0.3979  1.6702
 7798SOL    HW224836   7.147   1.810   7.025  3.2116 -0.0892 -1.5826
 7799SOL     OW24837   0.437   7.542   5.209 -0.4040  0.0407  0.4129
 7799SOL    HW124838   0.485   7.460   5.220  1.0270  0.6211 -1.0023
 7799SOL    HW224839   0.348   7.515   5.185 -0.1642 -1.0831  0.7294
 7800SOL     OW24840   4.761   5.599   5.717 -0.1388  0.6509 -0.3798
 7800SOL    HW124841   4.699   5.551   5.663 -0.5413 -0.7920  1.2508
 7800SOL    HW224842   4.847   5.576   5.682 -0.3580 -0.8348 -0.0159
 7801SOL     OW24843   0.991   1.260   8.063 -0.2149  0.4595 -0.2791
 7801SOL    HW124844   0.959   1.350   8.050 -0.1301  0.7520  1.3482
 7801SOL    HW224845   0.942   1.228   8.138  1.6353  0.0886  0.8308
 7802SOL     OW24846   7.292   0.323  10.581 -0.6817  0.1587 -0.1788
 7802SOL    HW124847   7.358   0.374  10.627  0.3735 -1.1105 -0.2360
 7802SOL    HW224848   7.260   0.381  10.512  0.1749  0.8908  0.0288
 7803SOL     OW24849   0.763   3.810   2.621 -0.0715 -0.1547  0.2620
 7803SOL    HW124850   0.817   3.838   2.695  0.7802  1.0515 -0.7693
 7803SOL    HW224851   0.747   3.891   2.571 -1.0219 -0.8619 -0.6193
 7804SOL     OW24852   1.782   2.097  11.855 -0.4806 -0.1099 -0.1876
 7804SOL    HW124853   1.844   2.052  11.913  0.7330  0.1126 -1.2559
 7804SOL    HW224854   1.824   2.181  11.836 -0.4214 -0.5020 -2.0086
 7805SOL     OW24855   1.521   1.132  10.398  0.7658  0.1276 -0.4798
 7805SOL    HW124856   1.471   1.130  10.316  1.8284  0.5715 -1.1609
 7805SOL    HW224857   1.506   1.220  10.433  1.8065  0.5997 -1.1761
 7806SOL     OW24858   4.669   0.523  12.286  0.2003 -0.6071  0.1857
 7806SOL    HW124859   4.699   0.438  12.318  1.4088  0.3804  1.8439
 7806SOL    HW224860   4.739   0.555  12.230 -0.5039 -0.9146 -0.9071
 7807SOL     OW24861   0.073   5.839  12.125 -0.0785  0.2543  0.3658
 7807SOL    HW124862   0.086   5.777  12.054  2.0376  1.1048 -0.0593
 7807SOL    HW224863   0.151   5.830  12.180  0.0041  2.0673  0.6197
 7808SOL     OW24864   6.660   1.700   0.765 -0.3977 -0.2572 -0.2188
 7808SOL    HW124865   6.717   1.628   0.738 -0.7017 -0.7680  0.4765
 7808SOL    HW224866   6.708   1.742   0.837 -0.0804  0.4374 -0.8177
 7809SOL     OW24867   0.883   4.939   0.196 -0.0540 -0.0803 -0.0532
 7809SOL    HW124868   0.950   5.008   0.201 -1.3619  1.2809 -0.4341
 7809SOL    HW224869   0.924   4.869   0.147  1.1926  0.6091 -0.0309
 7810SOL     OW24870   7.704   6.851   9.389 -0.1748 -0.0463  0.1800
 7810SOL    HW124871   7.734   6.777   9.443 -0.7945 -0.1950  0.3271
 7810SOL    HW224872   7.609   6.841   9.385 -0.0329 -1.2041 -2.6247
 7811SOL     OW24873   6.566   1.940   4.666  0.3811 -0.3199 -0.0899
 7811SOL    HW124874   6.650   1.985   4.660 -0.4105  1.2893  0.4017
 7811SOL    HW224875   6.564   1.884   4.589  1.2364  0.8111 -0.9763
 7812SOL     OW24876   0.298   7.251   6.935  0.4598 -0.1257  0.0525
 7812SOL    HW124877   0.370   7.201   6.975  0.0073 -1.9593 -1.2565
 7812SOL    HW224878   0.265   7.193   6.866 -1.4554  1.2085 -0.2206
 7813SOL     OW24879   3.887   1.824  11.131  0.3685 -0.1890  0.1384
 7813SOL    HW124880   3.833   1.851  11.205 -0.6932 -0.3345 -0.5562
 7813SOL    HW224881   3.923   1.739  11.157  0.0251 -0.2296  0.4954
 7814SOL     OW24882   6.606   5.167   8.628 -0.5237 -0.7293  0.1965
 7814SOL    HW124883   6.564   5.243   8.588  0.6852 -0.0284  0.2092
 7814SOL    HW224884   6.567   5.092   8.583 -0.0562 -0.0154 -1.4884
 7815SOL     OW24885   1.494   5.283   4.674  0.2266  0.1918 -0.0921
 7815SOL    HW124886   1.575   5.331   4.691  0.0357  1.6487 -2.7928
 7815SOL    HW224887   1.518   5.218   4.609 -0.5079 -0.3323  0.1469
 7816SOL     OW24888   3.543   0.683   4.421  0.7816  0.5511 -0.0096
 7816SOL    HW124889   3.459   0.646   4.394  1.1575  0.5496 -1.2317
 7816SOL    HW224890   3.522   0.771   4.453  0.0235 -0.2978  1.9339
 7817SOL     OW24891   7.593   6.945  10.798  0.1281 -0.0530  0.2355
 7817SOL    HW124892   7.626   6.997  10.724 -2.5266  1.5851  0.0417
 7817SOL    HW224893   7.597   6.855  10.767  0.9427  0.4093 -1.1259
 7818SOL     OW24894   5.568   0.286   3.281 -0.1421  0.2513  0.2567
 7818SOL    HW124895   5.637   0.271   3.216  2.1929  1.4436  2.2720
 7818SOL    HW224896   5.533   0.373   3.261  0.2188  0.3993  0.2594
 7819SOL     OW24897   0.930   2.199  10.186  0.6120 -0.0048  0.7489
 7819SOL    HW124898   0.971   2.233  10.106 -0.6572 -0.5389 -0.1728
 7819SOL    HW224899   0.859   2.260  10.204 -1.7876 -2.0299 -1.0019
 7820SOL     OW24900   1.852   0.854  11.700  0.2409  0.0087 -0.1684
 7820SOL    HW124901   1.843   0.944  11.669 -0.9256 -0.6909 -2.0581
 7820SOL    HW224902   1.946   0.838  11.700  0.4079  0.9081 -0.8338
 7821SOL     OW24903   7.149   2.138   6.303 -0.8301  0.5329  0.1769
 7821SOL    HW124904   7.238   2.106   6.288 -0.9560  0.5212 -0.5615
 7821SOL    HW224905   7.115   2.081   6.373 -0.0545  0.9345  0.8941
 7822SOL     OW24906   0.575   2.212   7.176  0.7128  0.1277 -0.0647
 7822SOL    HW124907   0.654   2.201   7.228 -0.2482 -0.1223  1.3974
 7822SOL    HW224908   0.565   2.130   7.128  2.6543  1.0542 -2.2387
 7823SOL     OW24909   0.489   5.096   4.854  0.1493  0.0365  0.0114
 7823SOL    HW124910   0.582   5.079   4.837 -0.0531 -1.6285  0.4468
 7823SOL    HW224911   0.442   5.032   4.801 -0.6678 -0.7767  1.6398
 7824SOL     OW24912   1.862   4.838   3.450  0.6607  0.1047 -0.4820
 7824SOL    HW124913   1.932   4.780   3.482  0.9131  0.3646 -0.5640
 7824SOL    HW224914   1.803   4.847   3.525  0.7346 -0.0837 -0.3997
 7825SOL     OW24915   5.246   0.067   5.781 -0.5539 -0.0397 -0.2881
 7825SOL    HW124916   5.292  -0.004   5.737 -1.5931  1.0698 -3.4235
 7825SOL    HW224917   5.314   0.112   5.831  0.5725 -1.8101 -0.1424
 7826SOL     OW24918   5.062   5.200   2.291 -0.1281 -0.0776 -0.0098
 7826SOL    HW124919   5.064   5.107   2.268 -3.5121 -0.0171 -0.9441
 7826SOL    HW224920   5.042   5.201   2.385 -1.2013 -0.3158 -0.2268
 7827SOL     OW24921   2.661   0.893   4.419 -1.0238  0.0981 -0.4641
 7827SOL    HW124922   2.724   0.874   4.488 -1.1142 -0.9609 -0.6435
 7827SOL    HW224923   2.714   0.898   4.339 -1.0591  0.0983 -0.4877
 7828SOL     OW24924   7.272   4.312   4.255 -0.6916 -0.7157  0.3314
 7828SOL    HW124925   7.246   4.291   4.344  1.4348  0.9897  1.4554
 7828SOL    HW224926   7.211   4.382   4.228  0.2260  0.5995  1.4979
 7829SOL     OW24927   3.535   0.112   4.508  0.3080 -0.0224 -0.3289
 7829SOL    HW124928   3.442   0.117   4.529  0.3709  1.5759 -0.3321
 7829SOL    HW224929   3.548   0.022   4.476 -1.3381 -0.1001 -0.8347
 7830SOL     OW24930   0.972   5.323   2.615 -0.0668 -0.5381  0.0581
 7830SOL    HW124931   0.906   5.318   2.546 -0.5031 -0.9737  0.4915
 7830SOL    HW224932   1.052   5.291   2.575  0.4879  2.0841 -1.1437
 7831SOL     OW24933   2.989   6.500   8.869 -0.4861  0.0765  0.0092
 7831SOL    HW124934   2.928   6.444   8.918 -0.2941  0.3343  0.5617
 7831SOL    HW224935   2.944   6.584   8.863 -0.6201 -0.0337 -0.4927
 7832SOL     OW24936   7.402   6.600   7.709 -0.4412 -0.3672 -0.5538
 7832SOL    HW124937   7.493   6.614   7.732 -0.2079 -1.2256 -0.8961
 7832SOL    HW224938   7.377   6.520   7.755 -1.1502  0.0792 -0.1332
 7833SOL     OW24939   1.890   1.739   9.655 -0.3497 -0.2006 -0.4557
 7833SOL    HW124940   1.834   1.816   9.666 -0.3603 -0.3913  1.1077
 7833SOL    HW224941   1.954   1.765   9.590  0.1928  1.4703  0.6686
 7834SOL     OW24942   5.379   1.070   8.371 -0.1703  0.1176 -0.0832
 7834SOL    HW124943   5.284   1.058   8.373 -0.3888  0.6573 -3.3057
 7834SOL    HW224944   5.412   1.005   8.434 -2.5644 -1.2738 -0.1347
 7835SOL     OW24945   3.043   6.879   3.288  0.5739 -0.5257  0.5757
 7835SOL    HW124946   2.977   6.835   3.234 -0.4143  1.4599  0.0499
 7835SOL    HW224947   3.110   6.907   3.226  0.7711 -0.5342  0.7840
 7836SOL     OW24948   7.287   6.291  12.428  0.4112 -0.9613 -0.4498
 7836SOL    HW124949   7.362   6.322  12.479 -0.2381 -0.1417  0.0276
 7836SOL    HW224950   7.225   6.259  12.494 -0.4508  0.1356 -0.7162
 7837SOL     OW24951   6.498   7.609  12.423 -0.3992  0.2762 -0.3270
 7837SOL    HW124952   6.430   7.675  12.407 -0.9684 -0.2855 -0.2971
 7837SOL    HW224953   6.579   7.649  12.391 -0.8590  0.7088 -0.9749
 7838SOL     OW24954   5.958   3.490   0.600 -0.3809 -0.8726 -0.1852
 7838SOL    HW124955   5.879   3.436   0.599 -0.5150 -0.6736 -0.2951
 7838SOL    HW224956   5.965   3.524   0.511  1.0771 -2.7017 -0.8382
 7839SOL     OW24957   7.120   7.013   0.262  0.1217 -0.7518  0.0976
 7839SOL    HW124958   7.041   6.969   0.291  1.4887 -4.2056 -0.9666
 7839SOL    HW224959   7.166   7.038   0.343 -1.0782 -0.5088  0.7194
 7840SOL     OW24960   0.254   4.692   6.376 -0.6143  0.4152 -0.5674
 7840SOL    HW124961   0.342   4.661   6.353 -0.3222 -1.5548  2.5788
 7840SOL    HW224962   0.215   4.619   6.424 -2.6213  2.5060  1.2159
 7841SOL     OW24963   1.070   7.144  11.438 -0.3608 -0.2683 -0.1596
 7841SOL    HW124964   1.096   7.054  11.460 -1.3526 -0.0340  2.2442
 7841SOL    HW224965   1.008   7.168  11.506 -0.1859  2.2332 -0.8075
 7842SOL     OW24966   5.161   3.226   8.346 -0.2176 -0.3799 -0.1955
 7842SOL    HW124967   5.123   3.314   8.342  1.7651  0.5212 -0.1759
 7842SOL    HW224968   5.158   3.203   8.439 -2.2278 -1.0759 -0.3769
 7843SOL     OW24969   4.070   3.160   7.865  0.3672 -0.1473 -0.2439
 7843SOL    HW124970   4.125   3.225   7.909 -2.0796  1.7560  0.1793
 7843SOL    HW224971   4.001   3.140   7.928  0.4774 -2.4773 -0.7552
 7844SOL     OW24972   4.599   3.790   1.252  0.1467  0.1795 -0.2194
 7844SOL    HW124973   4.690   3.773   1.276  0.0470  0.2373  0.2228
 7844SOL    HW224974   4.599   3.879   1.217  0.1947  0.3403  0.1799
 7845SOL     OW24975   3.314   6.090   7.302 -0.3926 -0.3007 -0.2238
 7845SOL    HW124976   3.239   6.108   7.358 -0.0948 -0.3419  0.1979
 7845SOL    HW224977   3.377   6.158   7.324 -0.5687  0.1480 -1.0744
 7846SOL     OW24978   6.127   4.281   8.015  0.1665 -0.2143 -0.3702
 7846SOL    HW124979   6.132   4.377   8.015 -0.0529 -0.1987 -1.0028
 7846SOL    HW224980   6.082   4.259   7.933 -0.6909 -0.8145  0.2456
 7847SOL     OW24981   0.410   7.158  11.633 -0.2297  0.1685  0.3378
 7847SOL    HW124982   0.476   7.223  11.657  0.2085 -0.0598 -0.2453
 7847SOL    HW224983   0.445   7.075  11.665 -0.6032  0.1546  0.7217
 7848SOL     OW24984   7.866   3.173  11.557 -0.2436 -1.3662 -0.1456
 7848SOL    HW124985   7.806   3.130  11.618 -0.0948  0.0153  1.0068
 7848SOL    HW224986   7.810   3.225  11.499 -0.2152 -0.5905  0.5150
 7849SOL     OW24987   6.287   4.648  10.275 -0.2691 -0.5300  0.4410
 7849SOL    HW124988   6.224   4.720  10.277  0.6352  0.3034  3.3203
 7849SOL    HW224989   6.259   4.589  10.345  0.9292 -1.2472  0.3448
 7850SOL     OW24990   7.233   3.389   3.811  0.2611 -0.3060  0.4774
 7850SOL    HW124991   7.228   3.452   3.739 -0.5776 -1.2292 -0.3007
 7850SOL    HW224992   7.315   3.343   3.797 -0.0345 -0.6739 -0.0551
 7851SOL     OW24993   5.212   2.837  10.012  0.4978  0.1954  0.3441
 7851SOL    HW124994   5.242   2.923   9.983 -0.6826  0.1879 -0.9971
 7851SOL    HW224995   5.203   2.786   9.932 -3.4522  0.3723  0.4879
 7852SOL     OW24996   6.301   6.745   1.006 -0.2247 -0.2855 -0.7951
 7852SOL    HW124997   6.299   6.672   1.067 -0.2158  0.6931  0.4023
 7852SOL    HW224998   6.391   6.746   0.973 -0.0401 -0.3858 -0.2941
 7853SOL     OW24999   0.004   0.631   5.294 -0.2975  0.4295  0.1942
 7853SOL    HW125000   0.089   0.612   5.254 -0.3829  0.2626  0.0891
 7853SOL    HW225001   0.024   0.647   5.386 -0.3866 -1.8519  0.6883
 7854SOL     OW25002   0.841   4.521   9.613 -0.6533  0.1748  0.0251
 7854SOL    HW125003   0.900   4.524   9.538  1.1650  0.9591  1.4134
 7854SOL    HW225004   0.782   4.595   9.600 -0.5986  0.0806 -0.8026
 7855SOL     OW25005   7.517   0.564   3.734  0.6130 -0.4589  0.0146
 7855SOL    HW125006   7.530   0.556   3.639  1.3377  0.3144  0.0346
 7855SOL    HW225007   7.423   0.554   3.746  0.2409  1.3505 -1.0188
 7856SOL     OW25008   1.907   2.944  12.193  0.4533  0.1498 -0.4387
 7856SOL    HW125009   1.990   2.991  12.192 -0.3595  1.6970  0.8492
 7856SOL    HW225010   1.848   2.999  12.244 -0.8600 -1.7762  0.2553
 7857SOL     OW25011   2.973   7.214  11.941 -0.0404 -0.3276 -0.3679
 7857SOL    HW125012   3.054   7.172  11.914  0.4873  0.1759  0.3876
 7857SOL    HW225013   2.987   7.307  11.925 -0.4266 -0.2231 -0.1362
 7858SOL     OW25014   0.511   2.645   7.049  0.1535 -0.0074 -0.5294
 7858SOL    HW125015   0.532   2.558   7.014 -1.4881  0.4502 -2.8968
 7858SOL    HW225016   0.446   2.627   7.118  1.5181 -0.7680  0.6009
 7859SOL     OW25017   5.103   2.445   1.755 -0.0488  0.2758 -0.1743
 7859SOL    HW125018   5.152   2.402   1.685 -0.3862 -0.5083  0.0578
 7859SOL    HW225019   5.138   2.534   1.758  0.1152  0.2612 -1.1989
 7860SOL     OW25020   4.924   1.899   9.259 -0.2947  0.4754  0.0454
 7860SOL    HW125021   4.995   1.897   9.323  0.5885  0.3459 -0.9298
 7860SOL    HW225022   4.913   1.808   9.232 -0.0588  0.6464 -0.6416
 7861SOL     OW25023   6.878   7.879   6.834  0.0203  0.0205 -0.5799
 7861SOL    HW125024   6.862   7.904   6.743 -0.0320  0.1263 -0.5420
 7861SOL    HW225025   6.811   7.926   6.884 -0.0355 -0.1434 -0.5011
 7862SOL     OW25026   3.245   2.093   6.661  0.3675 -0.1672 -0.0779
 7862SOL    HW125027   3.335   2.099   6.694 -0.6481 -0.1020  2.9326
 7862SOL    HW225028   3.207   2.179   6.681 -0.7791 -0.6850  0.0174
 7863SOL     OW25029   0.658   0.435   7.518  0.3996 -0.0476  0.0874
 7863SOL    HW125030   0.721   0.453   7.449  2.5459  1.8885  2.3369
 7863SOL    HW225031   0.605   0.515   7.523 -0.5099 -0.6315 -0.0459
 7864SOL     OW25032   0.140   5.985  11.783  0.9478  0.1950  0.9506
 7864SOL    HW125033   0.235   5.974  11.782  0.9346  0.0648  1.1585
 7864SOL    HW225034   0.123   6.048  11.713  1.4282  2.1451  2.4863
 7865SOL     OW25035   3.344   5.433   9.593  0.1000  0.1792  0.5716
 7865SOL    HW125036   3.315   5.425   9.684 -0.4723 -1.5533  0.2822
 7865SOL    HW225037   3.359   5.343   9.565 -0.8050  0.5801 -1.3821
 7866SOL     OW25038   3.315   4.570   8.244  0.1930  0.0219  0.2133
 7866SOL    HW125039   3.345   4.653   8.208  1.0578 -0.0416  0.7632
 7866SOL    HW225040   3.387   4.509   8.227  0.3475 -0.1610  1.4507
 7867SOL     OW25041   3.262   4.608   0.714 -0.8978  0.0068  0.0268
 7867SOL    HW125042   3.255   4.513   0.704  1.3712 -0.1692 -0.5902
 7867SOL    HW225043   3.297   4.638   0.630  2.0703  0.8353  1.4290
 7868SOL     OW25044   7.850   3.840   3.309 -0.2719  0.0886  0.0851
 7868SOL    HW125045   7.870   3.783   3.235  0.9135 -0.5021  0.8208
 7868SOL    HW225046   7.863   3.785   3.386 -0.7804  0.8841  0.7627
 7869SOL     OW25047   4.109   5.303   8.511  0.4437  0.0547  0.3330
 7869SOL    HW125048   4.100   5.223   8.563  0.7512 -1.1431 -1.3565
 7869SOL    HW225049   4.190   5.343   8.542  0.2291 -0.2197  1.2791
 7870SOL     OW25050   6.759   4.728   3.725 -0.3713  0.3045 -0.1838
 7870SOL    HW125051   6.802   4.813   3.727 -1.0614  0.6657 -0.0861
 7870SOL    HW225052   6.665   4.749   3.720 -0.7424 -0.3871  2.4649
 7871SOL     OW25053   2.500   5.425   7.296  0.0597  0.0527  0.1115
 7871SOL    HW125054   2.593   5.401   7.300  0.6901  2.3130  1.0075
 7871SOL    HW225055   2.492   5.476   7.216 -1.0574 -2.2802 -1.3509
 7872SOL     OW25056   1.733   2.438   4.755  0.2685  0.5824  0.1306
 7872SOL    HW125057   1.660   2.460   4.698  0.0238 -0.1392  0.1477
 7872SOL    HW225058   1.709   2.353   4.792  1.6030 -0.2086 -0.7244
 7873SOL     OW25059   5.883   5.183   2.075 -0.0012  0.3671 -0.3891
 7873SOL    HW125060   5.833   5.176   2.156 -0.1301 -0.1072 -0.5026
 7873SOL    HW225061   5.951   5.247   2.093 -0.4983  0.8361 -0.1497
 7874SOL     OW25062   5.619   1.463   4.348 -0.2365  0.1041  0.1924
 7874SOL    HW125063   5.629   1.549   4.389 -0.9515  0.4476 -0.3432
 7874SOL    HW225064   5.562   1.415   4.408  1.7456 -0.7225  1.5378
 7875SOL     OW25065   1.487   6.814   5.510 -0.3192 -0.0163  0.2540
 7875SOL    HW125066   1.555   6.787   5.447  0.2906  2.5153 -0.2729
 7875SOL    HW225067   1.525   6.795   5.595  0.7862  0.6835 -0.0552
 7876SOL     OW25068   2.257   5.736   6.429 -0.4540 -0.1451 -0.0938
 7876SOL    HW125069   2.313   5.801   6.386 -1.4400  0.5924 -0.2944
 7876SOL    HW225070   2.176   5.783   6.449 -0.8899 -1.1072  0.4793
 7877SOL     OW25071   4.678   3.251   2.154  0.2498 -0.3155  0.5272
 7877SOL    HW125072   4.613   3.254   2.083 -0.4146  1.4703  1.1654
 7877SOL    HW225073   4.751   3.304   2.123  1.3641 -2.0951 -0.0710
 7878SOL     OW25074   0.347   0.175   3.162  0.1899 -0.3315 -0.3586
 7878SOL    HW125075   0.422   0.232   3.143 -0.5305  0.5918 -0.5050
 7878SOL    HW225076   0.295   0.177   3.082 -0.9853  0.6183  0.3927
 7879SOL     OW25077   1.723   1.871   6.458  0.4241 -0.2561 -0.2910
 7879SOL    HW125078   1.787   1.820   6.508  0.3543  0.2316  0.3038
 7879SOL    HW225079   1.689   1.935   6.520  0.6296  0.6352 -1.0768
 7880SOL     OW25080   4.118   7.058   2.518 -0.5034 -0.3233 -0.3498
 7880SOL    HW125081   4.152   6.969   2.523  1.3905  0.3780 -0.0333
 7880SOL    HW225082   4.053   7.063   2.588  0.7654 -0.9037  0.9228
 7881SOL     OW25083   0.466   5.876  10.845  0.2838  0.1155  0.1726
 7881SOL    HW125084   0.434   5.872  10.935 -0.6224  1.1446 -0.0859
 7881SOL    HW225085   0.441   5.963  10.814  0.7103 -0.1663 -1.0298
 7882SOL     OW25086   0.277   2.259   8.047  0.0019  0.1003 -0.1038
 7882SOL    HW125087   0.249   2.211   8.126  0.3952  1.6181  0.9951
 7882SOL    HW225088   0.371   2.270   8.058 -0.0305  0.8180 -0.4987
 7883SOL     OW25089   6.299   4.781   2.277 -0.4901  0.3835 -0.2768
 7883SOL    HW125090   6.393   4.789   2.260 -0.5371  2.1901  0.0838
 7883SOL    HW225091   6.285   4.687   2.290  1.6332  0.2298  1.7123
 7884SOL     OW25092   5.687   4.305   7.204 -0.0320  0.0413 -0.8441
 7884SOL    HW125093   5.708   4.233   7.144  1.1014 -0.1769 -0.2105
 7884SOL    HW225094   5.601   4.282   7.239 -0.5801  0.0145 -2.1208
 7885SOL     OW25095   1.838   1.607   9.023  0.2264 -0.5786  0.3890
 7885SOL    HW125096   1.900   1.553   8.974 -0.4677 -1.5468  0.5459
 7885SOL    HW225097   1.773   1.635   8.958  0.2798 -0.3814  0.4184
 7886SOL     OW25098   3.577   4.463   1.769 -0.3803  0.2128  0.0669
 7886SOL    HW125099   3.656   4.408   1.767 -0.1384  0.5442  0.5482
 7886SOL    HW225100   3.602   4.543   1.723 -0.0603  0.8076  1.2360
 7887SOL     OW25101   4.951   0.828  12.270  0.1590  0.0191 -0.6119
 7887SOL    HW125102   4.983   0.812  12.181 -0.1398  1.2719 -0.9612
 7887SOL    HW225103   4.856   0.829  12.262  0.1066 -0.4618 -0.1558
 7888SOL     OW25104   6.703   0.773   1.791  0.7908  0.1530  0.4592
 7888SOL    HW125105   6.659   0.771   1.706  0.8961  1.7610  0.3375
 7888SOL    HW225106   6.795   0.783   1.771  0.7407  1.3164  0.7590
 7889SOL     OW25107   1.384   1.069   6.293 -0.5226 -0.2157  0.7367
 7889SOL    HW125108   1.378   0.992   6.236  0.1276  0.4129 -0.2308
 7889SOL    HW225109   1.471   1.105   6.275 -0.5938  0.4217  1.6032
 7890SOL     OW25110   1.826   0.899   5.508 -0.1839  0.3658 -0.3139
 7890SOL    HW125111   1.855   0.875   5.596 -1.4593  1.8191  0.5526
 7890SOL    HW225112   1.892   0.961   5.477  0.1131  0.0752 -0.2671
 7891SOL     OW25113   7.000   4.926   0.281  0.1887 -0.1282  0.3919
 7891SOL    HW125114   6.963   4.849   0.238  0.5175 -0.2424  0.3085
 7891SOL    HW225115   6.925   4.983   0.298  0.2357  0.6498 -1.7847
 7892SOL     OW25116   7.537   1.622   2.983  0.1648  0.0248 -0.3939
 7892SOL    HW125117   7.571   1.692   3.039 -1.3906  0.1203  0.4666
 7892SOL    HW225118   7.442   1.636   2.981 -0.2730 -2.4203  0.3078
 7893SOL     OW25119   3.419   7.464  11.063 -0.0821 -0.0905 -0.0366
 7893SOL    HW125120   3.441   7.397  10.998  1.0396 -0.9827  1.2170
 7893SOL    HW225121   3.449   7.546  11.024  1.8724 -0.7837 -0.0820
 7894SOL     OW25122   4.278   0.075   1.853 -0.2039 -0.1049  0.8396
 7894SOL    HW125123   4.303  -0.010   1.887  0.3637  0.4689  1.8969
 7894SOL    HW225124   4.330   0.085   1.773  0.3620 -0.4017  1.1647
 7895SOL     OW25125   4.951   0.385   2.918  0.3938 -0.1654  0.4735
 7895SOL    HW125126   5.007   0.375   2.995  0.1743  0.6080  0.7426
 7895SOL    HW225127   4.954   0.478   2.898 -0.9121 -0.0860  0.5845
 7896SOL     OW25128   2.608   4.380   4.077  0.3528 -0.1799 -0.1207
 7896SOL    HW125129   2.677   4.348   4.136  0.3209 -0.9351 -0.4846
 7896SOL    HW225130   2.595   4.471   4.104  1.2170 -0.1406  0.2123
 7897SOL     OW25131   3.461   4.008   6.593 -0.1655 -0.1515  0.7104
 7897SOL    HW125132   3.487   4.000   6.684  0.3231  1.8722  0.8163
 7897SOL    HW225133   3.367   4.027   6.596 -0.5014 -1.6912  0.6659
 7898SOL     OW25134   5.151   4.035   6.740 -0.3698  0.2172  0.2595
 7898SOL    HW125135   5.131   4.117   6.785 -0.2719  0.8209 -0.7491
 7898SOL    HW225136   5.097   4.038   6.661  1.8310  0.7526 -1.3167
 7899SOL     OW25137   5.608   0.136   9.021 -0.1669  0.1749  0.1678
 7899SOL    HW125138   5.578   0.049   9.044  2.3425 -0.8197  0.0678
 7899SOL    HW225139   5.597   0.142   8.926  1.7764 -1.0101 -0.1812
 7900SOL     OW25140   6.793   6.647   1.460  0.5589 -0.0569  0.2639
 7900SOL    HW125141   6.734   6.640   1.385  0.7738  0.1047  0.0813
 7900SOL    HW225142   6.878   6.668   1.422  0.5427  0.6177  0.5979
 7901SOL     OW25143   5.043   7.126   8.934 -0.7225 -0.0587 -0.2841
 7901SOL    HW125144   5.073   7.115   9.024  2.7898 -0.8975 -1.3817
 7901SOL    HW225145   5.055   7.040   8.894  0.1661  0.8639 -2.1285
 7902SOL     OW25146   6.237   2.075  12.181 -0.0746 -0.0531 -0.0133
 7902SOL    HW125147   6.243   2.042  12.092 -1.3088  0.1235 -0.1762
 7902SOL    HW225148   6.313   2.134  12.190 -0.5383  0.7763 -1.3112
 7903SOL     OW25149   7.884   0.924  11.814  0.0877 -0.4123  0.0963
 7903SOL    HW125150   7.903   0.927  11.720 -0.3410  0.4110  0.0224
 7903SOL    HW225151   7.799   0.968  11.823  1.0073  1.3102  1.0586
 7904SOL     OW25152   7.692   7.030   2.688  1.4704  0.2080  0.1513
 7904SOL    HW125153   7.666   7.065   2.603 -0.6068  0.0412  0.6591
 7904SOL    HW225154   7.664   6.938   2.685  0.4576  0.4425  1.3272
 7905SOL     OW25155   7.779   4.145  10.435  0.4278 -0.6975  0.2214
 7905SOL    HW125156   7.739   4.071  10.481  1.0787 -0.7940  0.6535
 7905SOL    HW225157   7.834   4.187  10.501 -1.5910  1.5329  0.6577
 7906SOL     OW25158   7.265   4.226   2.458 -0.1723  0.9449 -0.1174
 7906SOL    HW125159   7.344   4.239   2.512  0.5658  0.7970 -1.1434
 7906SOL    HW225160   7.235   4.139   2.482  0.4575  0.6650 -0.3268
 7907SOL     OW25161   5.322   2.408   8.568  0.1245  0.8628  0.0017
 7907SOL    HW125162   5.414   2.430   8.583  0.4481  0.2344 -0.9743
 7907SOL    HW225163   5.325   2.336   8.506 -0.9938  0.0478  0.8495
 7908SOL     OW25164   7.439   0.376   1.872 -0.3240  0.0340 -0.1618
 7908SOL    HW125165   7.444   0.285   1.901  0.5163 -0.0438 -0.5448
 7908SOL    HW225166   7.374   0.416   1.931  1.3116 -0.1043  1.8413
 7909SOL     OW25167   1.628   0.301   0.376  0.5024  0.2741 -0.3164
 7909SOL    HW125168   1.540   0.280   0.406 -0.0766  1.2970 -1.2378
 7909SOL    HW225169   1.679   0.222   0.393 -0.3137  0.0517  1.2507
 7910SOL     OW25170   2.255   1.644   9.495 -0.1174  0.1718  0.0328
 7910SOL    HW125171   2.208   1.584   9.552 -0.2356  0.4482  0.2295
 7910SOL    HW225172   2.341   1.653   9.534  0.8081 -1.8649 -1.3875
 7911SOL     OW25173   5.318   1.399   7.544  0.2698 -0.1671  0.1657
 7911SOL    HW125174   5.301   1.390   7.638 -0.4086  0.4094  0.1105
 7911SOL    HW225175   5.342   1.491   7.533 -1.4215  0.2396 -0.4655
 7912SOL     OW25176   1.709   0.502   1.899  0.3373 -0.1508  0.2115
 7912SOL    HW125177   1.757   0.436   1.848 -0.0334  0.1269 -0.5204
 7912SOL    HW225178   1.660   0.451   1.964  4.1371 -0.2708  3.2740
 7913SOL     OW25179   0.310   3.418   1.945 -0.4863  0.5168 -0.2446
 7913SOL    HW125180   0.323   3.346   1.884 -2.7443  0.6124 -0.9071
 7913SOL    HW225181   0.307   3.376   2.031 -2.4451 -0.3249 -0.6790
 7914SOL     OW25182   0.046   2.721   9.805  0.4146  0.3841 -0.1573
 7914SOL    HW125183   0.124   2.720   9.750  1.1278 -0.6172  0.8370
 7914SOL    HW225184  -0.018   2.667   9.757  0.3450  1.1387 -0.9315
 7915SOL     OW25185   7.347   3.692  10.021 -0.2056  0.1836 -0.1081
 7915SOL    HW125186   7.404   3.616  10.017 -0.3422  0.0763 -0.0073
 7915SOL    HW225187   7.268   3.661  10.065 -1.2188 -0.2245 -2.0973
 7916SOL     OW25188   6.881   3.564   9.336  0.4322 -0.4039  0.2394
 7916SOL    HW125189   6.854   3.472   9.326  0.8027 -0.4935  0.0552
 7916SOL    HW225190   6.953   3.574   9.274 -0.4391  0.3577 -0.6876
 7917SOL     OW25191   3.924   0.936   1.099 -1.0495 -0.0224  0.1529
 7917SOL    HW125192   3.861   0.910   1.032 -0.1023 -0.4304 -0.5822
 7917SOL    HW225193   4.001   0.882   1.084  0.4660  2.1758 -0.5702
 7918SOL     OW25194   4.552   3.038   8.283 -0.0350 -0.0989  0.5707
 7918SOL    HW125195   4.566   3.044   8.378 -0.5647  1.2326  0.5884
 7918SOL    HW225196   4.639   3.021   8.247  0.0715 -1.2839  1.3287
 7919SOL     OW25197   2.675   6.241  12.111  0.0695  0.0637  0.0729
 7919SOL    HW125198   2.724   6.323  12.096  0.5415 -0.2903 -0.3787
 7919SOL    HW225199   2.611   6.263  12.178 -0.8002  1.2118 -1.0713
 7920SOL     OW25200   2.045   6.885   0.770  0.6384  0.5750  0.4592
 7920SOL    HW125201   1.972   6.916   0.716 -0.7131  1.2893  2.5505
 7920SOL    HW225202   2.099   6.833   0.710 -2.4167 -1.3523 -0.8928
 7921SOL     OW25203   7.765   3.575   1.660  0.1858 -0.1664  0.3446
 7921SOL    HW125204   7.673   3.601   1.667 -0.3568 -1.3344 -1.5474
 7921SOL    HW225205   7.813   3.637   1.715 -1.5445  1.5850 -0.0452
 7922SOL     OW25206   2.302   0.535   2.487 -0.7146  0.0760  0.3061
 7922SOL    HW125207   2.316   0.459   2.543  1.2520  0.6247  0.6265
 7922SOL    HW225208   2.389   0.556   2.453 -0.8567  3.2740  1.6617
 7923SOL     OW25209   3.014   2.971   0.103 -0.5519  0.0689 -0.1567
 7923SOL    HW125210   3.014   3.025   0.182 -0.7509 -4.2982  3.1790
 7923SOL    HW225211   3.099   2.986   0.063  0.0289  1.5567  1.5420
 7924SOL     OW25212   5.703   1.773   6.979  0.5233 -0.1622 -0.1183
 7924SOL    HW125213   5.757   1.852   6.977  0.2808  0.0015 -0.5953
 7924SOL    HW225214   5.670   1.765   6.889 -0.1922 -0.2894  0.1471
 7925SOL     OW25215   5.434   4.071   8.172 -0.1229 -0.1439  0.0606
 7925SOL    HW125216   5.358   4.129   8.175 -1.3807 -1.7489  2.2297
 7925SOL    HW225217   5.498   4.114   8.229  0.3651  0.8431 -1.1860
 7926SOL     OW25218   0.022   3.464   1.070  0.0228  0.3909  0.1172
 7926SOL    HW125219   0.096   3.403   1.068 -0.7303 -0.5128 -1.1686
 7926SOL    HW225220   0.062   3.550   1.060  1.1883  0.2593  2.7061
 7927SOL     OW25221   0.786   6.962  11.121  0.2315 -0.0525 -0.3395
 7927SOL    HW125222   0.803   6.976  11.028 -0.8774  0.9311 -0.4167
 7927SOL    HW225223   0.707   7.013  11.140  1.6432  1.5713  1.6403
 7928SOL     OW25224   4.033   0.829   7.722  0.1212  0.2200 -0.3420
 7928SOL    HW125225   4.056   0.841   7.814  0.2252  2.7327 -0.6244
 7928SOL    HW225226   4.115   0.804   7.680  0.3397  0.2389  0.0687
 7929SOL     OW25227   7.235   4.308  10.556 -0.0921  0.4992  0.4344
 7929SOL    HW125228   7.285   4.253  10.616 -0.1166  0.1515  0.1354
 7929SOL    HW225229   7.292   4.319  10.480 -0.8511 -0.7212 -0.3390
 7930SOL     OW25230   3.280   0.383   8.147  0.1428  0.3850  0.3738
 7930SOL    HW125231   3.187   0.395   8.162 -0.0160 -0.7066  0.3804
 7930SOL    HW225232   3.294   0.407   8.055 -0.1759  0.3927  0.3294
 7931SOL     OW25233   7.331   1.637  10.763 -0.8554 -0.2735 -0.3259
 7931SOL    HW125234   7.304   1.598  10.679 -1.1164 -2.7436  0.8014
 7931SOL    HW225235   7.394   1.573  10.798  0.6296  1.6004  0.5875
 7932SOL     OW25236   7.215   5.045   5.487  0.4372  0.0246  0.2436
 7932SOL    HW125237   7.308   5.060   5.471  0.0428  1.1438 -1.2140
 7932SOL    HW225238   7.174   5.051   5.400 -1.1537  0.7655  1.0028
 7933SOL     OW25239   2.853   3.943   8.524 -0.3861  0.1314 -0.1383
 7933SOL    HW125240   2.893   3.987   8.449 -1.7280  0.1491 -0.8629
 7933SOL    HW225241   2.875   3.999   8.599  0.4032  0.4638 -0.6109
 7934SOL     OW25242   1.147   3.376   9.425 -0.0831  0.3359  0.0470
 7934SOL    HW125243   1.182   3.287   9.431 -0.6480  0.0680 -0.5374
 7934SOL    HW225244   1.067   3.373   9.478  0.0294  0.5722  0.2335
 7935SOL     OW25245   4.641   2.644   1.199 -0.6564 -0.3099  0.1017
 7935SOL    HW125246   4.618   2.676   1.286  0.7154 -1.8785  1.0961
 7935SOL    HW225247   4.728   2.606   1.209  0.2226  0.8029 -2.3150
 7936SOL     OW25248   4.078   5.017   7.710 -0.2811 -0.2507  0.9633
 7936SOL    HW125249   4.090   4.939   7.657 -0.7856  0.2971  0.0148
 7936SOL    HW225250   4.106   4.991   7.798  3.2249 -0.3883 -0.0556
 7937SOL     OW25251   2.351   1.794   1.626 -0.4399 -0.0520  0.3355
 7937SOL    HW125252   2.367   1.712   1.579 -3.0179  0.3560 -1.4795
 7937SOL    HW225253   2.423   1.852   1.598  0.8545 -1.3393  0.8832
 7938SOL     OW25254   7.309   3.135   1.892 -0.2539  0.1128 -0.7383
 7938SOL    HW125255   7.399   3.141   1.925 -0.1747  1.4038 -1.1232
 7938SOL    HW225256   7.293   3.220   1.851 -0.5379 -1.1821 -3.5340
 7939SOL     OW25257   5.047   5.326   6.281  0.3664  0.2251  0.2851
 7939SOL    HW125258   5.008   5.254   6.331 -0.1241 -0.4533 -1.0162
 7939SOL    HW225259   5.045   5.296   6.190  1.3271  1.3722 -0.1458
 7940SOL     OW25260   6.702   2.525   4.578 -0.1927 -0.8089 -0.0722
 7940SOL    HW125261   6.666   2.614   4.581 -0.2328 -0.7654  4.2675
 7940SOL    HW225262   6.629   2.469   4.605  0.5017 -1.8802 -0.3402
 7941SOL     OW25263   3.330   5.470   7.982 -1.0810  0.5272 -0.2231
 7941SOL    HW125264   3.270   5.426   7.922 -2.8395  0.9504  1.1445
 7941SOL    HW225265   3.284   5.551   8.006 -2.2259 -1.1769  4.4343
 7942SOL     OW25266   3.928   5.991   9.822 -0.8047  0.0682  0.2046
 7942SOL    HW125267   4.020   5.989   9.796 -1.1255  0.3784 -0.9721
 7942SOL    HW225268   3.885   5.930   9.762 -1.3334 -0.2886  0.9338
 7943SOL     OW25269   4.083   5.489   1.270 -0.0295  0.2585 -0.0694
 7943SOL    HW125270   4.049   5.575   1.244 -0.2417  0.6061  1.2838
 7943SOL    HW225271   4.039   5.428   1.211 -0.8520  0.9636 -0.2198
 7944SOL     OW25272   5.466   5.552   4.282 -0.3953  0.8452  0.6091
 7944SOL    HW125273   5.372   5.541   4.295 -0.6313  0.3537 -1.2505
 7944SOL    HW225274   5.475   5.577   4.191  1.4426 -2.2207 -0.2103
 7945SOL     OW25275   1.360   2.879   0.019  0.0477  0.1001  0.5919
 7945SOL    HW125276   1.364   2.963  -0.026 -0.4392 -0.6153 -0.8858
 7945SOL    HW225277   1.286   2.887   0.079 -1.6454 -0.0679 -1.3771
 7946SOL     OW25278   5.811   2.877   0.265  0.3585  0.6292  0.1108
 7946SOL    HW125279   5.719   2.897   0.277  0.5636  1.1025  0.9024
 7946SOL    HW225280   5.856   2.961   0.266  0.9136  0.3387  0.7475
 7947SOL     OW25281   4.232   2.550   1.966  0.2070  0.1081  0.2468
 7947SOL    HW125282   4.277   2.471   1.994 -2.4264 -1.4297  0.4765
 7947SOL    HW225283   4.231   2.606   2.044  0.3951 -0.4972  0.6919
 7948SOL     OW25284   2.936   0.039   1.249 -0.7090  0.2316 -0.2035
 7948SOL    HW125285   2.926   0.106   1.181 -1.1608  0.9808  0.5727
 7948SOL    HW225286   2.975   0.086   1.323 -1.3884 -0.2723  0.4907
 7949SOL     OW25287   1.863   2.817   7.242  0.1073  0.1343 -0.0460
 7949SOL    HW125288   1.804   2.800   7.168  0.4007 -0.9841 -0.0394
 7949SOL    HW225289   1.948   2.785   7.213  0.1501 -0.6589  0.8962
 7950SOL     OW25290   4.656   2.784   0.042 -0.3778 -0.0362 -0.0383
 7950SOL    HW125291   4.687   2.693   0.044 -1.7997 -0.6209 -1.9918
 7950SOL    HW225292   4.613   2.793  -0.042 -0.5685  2.3930  0.2450
 7951SOL     OW25293   1.362   6.192   9.860 -0.5544  0.1761  0.1052
 7951SOL    HW125294   1.342   6.173   9.952  0.3815  0.2708  0.3400
 7951SOL    HW225295   1.444   6.242   9.864 -0.3027 -0.1556 -0.8052
 7952SOL     OW25296   3.099   1.468   3.049 -0.3335 -0.2908  0.2059
 7952SOL    HW125297   3.191   1.453   3.029 -0.2587  0.8646 -0.4232
 7952SOL    HW225298   3.052   1.420   2.980 -0.2186 -1.0321  0.6341
 7953SOL     OW25299   7.970   4.556   0.514 -0.3393  0.2200  0.2047
 7953SOL    HW125300   7.899   4.575   0.453 -1.0306 -0.5848  0.7495
 7953SOL    HW225301   7.986   4.463   0.505  0.4426  0.3372  0.3116
 7954SOL     OW25302   6.940   0.274  10.968 -0.2388 -0.3241 -0.4024
 7954SOL    HW125303   6.898   0.240  10.889  0.4467 -0.5636 -0.6688
 7954SOL    HW225304   7.014   0.215  10.984  0.4984  0.5745 -0.4194
 7955SOL     OW25305   4.815   6.903   0.265 -0.1227 -0.3040 -0.4152
 7955SOL    HW125306   4.756   6.970   0.301  1.3023  0.1332  1.2651
 7955SOL    HW225307   4.901   6.925   0.301  1.0013 -1.2196 -2.3739
 7956SOL     OW25308   7.782   7.770   5.992 -0.2742 -0.3536 -0.0451
 7956SOL    HW125309   7.811   7.853   6.030  0.5479 -0.2517 -0.8629
 7956SOL    HW225310   7.687   7.770   6.004 -0.2840  0.7136 -0.0495
 7957SOL     OW25311   1.291   4.654   4.814 -0.1686 -0.4433  0.0432
 7957SOL    HW125312   1.382   4.636   4.791 -0.4050 -1.1685 -0.3600
 7957SOL    HW225313   1.287   4.640   4.909  0.6889  2.0524  0.5154
 7958SOL     OW25314   7.665   1.666   1.638 -0.2755 -0.0506 -0.1625
 7958SOL    HW125315   7.691   1.758   1.636  0.9836 -0.3684  0.3066
 7958SOL    HW225316   7.572   1.666   1.616 -0.2018  1.2946 -0.5362
 7959SOL     OW25317   6.575   2.491   6.106  0.4859  0.2116  0.0807
 7959SOL    HW125318   6.610   2.448   6.184 -1.5211 -0.6122  0.5889
 7959SOL    HW225319   6.646   2.549   6.077  1.4232  0.2942  2.3145
 7960SOL     OW25320   1.983   4.321   6.252 -0.9361 -0.2505  0.0292
 7960SOL    HW125321   1.908   4.269   6.221  0.2269 -2.2343  0.3677
 7960SOL    HW225322   1.995   4.293   6.343 -0.2133  0.5871  0.2033
 7961SOL     OW25323   0.450   1.122   8.941 -0.0055 -0.2973 -0.2099
 7961SOL    HW125324   0.358   1.144   8.954 -0.0931 -0.8736  0.1484
 7961SOL    HW225325   0.483   1.191   8.882 -0.5035  0.2605  0.1573
 7962SOL     OW25326   5.323   5.466   9.359 -0.2994 -0.3020 -0.0664
 7962SOL    HW125327   5.233   5.486   9.381 -0.2123 -0.1399  0.1420
 7962SOL    HW225328   5.331   5.491   9.266 -0.8568 -1.6496 -0.5028
 7963SOL     OW25329   2.878   2.705   9.199  0.4495  0.1519 -0.5076
 7963SOL    HW125330   2.820   2.780   9.187 -0.7093 -0.7397 -0.6261
 7963SOL    HW225331   2.919   2.692   9.114 -0.2602 -0.0795 -0.8209
 7964SOL     OW25332   1.574   0.841   5.479 -0.4097 -0.9787 -0.0281
 7964SOL    HW125333   1.563   0.750   5.504 -0.4924 -1.4707 -1.7338
 7964SOL    HW225334   1.669   0.856   5.482 -0.4243 -0.9868  0.6418
 7965SOL     OW25335   0.827   0.991   8.182 -0.7501  0.0949  0.1414
 7965SOL    HW125336   0.840   0.897   8.192 -3.6461 -0.4156 -0.2530
 7965SOL    HW225337   0.744   1.000   8.136  0.9193  2.8254 -2.7439
 7966SOL     OW25338   2.152   5.920   8.082 -0.1094 -0.0151 -0.2413
 7966SOL    HW125339   2.093   5.854   8.116  1.0753 -2.0239 -1.8396
 7966SOL    HW225340   2.236   5.902   8.124 -0.1045  1.5157  0.4840
 7967SOL     OW25341   1.145   0.464  11.371  0.0389  0.6907  0.3353
 7967SOL    HW125342   1.131   0.404  11.298  0.7233 -0.2880  0.9730
 7967SOL    HW225343   1.079   0.440  11.436 -1.4309  2.4270 -0.4403
 7968SOL     OW25344   6.516   6.214   4.876  0.3075  0.3212  0.2987
 7968SOL    HW125345   6.481   6.263   4.951  0.5274 -2.0843  2.0662
 7968SOL    HW225346   6.480   6.260   4.800 -2.4346  1.0856  1.9022
 7969SOL     OW25347   6.364   3.572   0.264  0.1632 -0.1376  0.2011
 7969SOL    HW125348   6.411   3.494   0.294 -2.6078 -1.7063  0.8096
 7969SOL    HW225349   6.382   3.638   0.330  0.6686 -1.0092  0.9577
 7970SOL     OW25350   1.467   3.854   8.292  0.1381 -0.1029  0.1677
 7970SOL    HW125351   1.432   3.792   8.228  0.7360 -0.4499  0.1683
 7970SOL    HW225352   1.559   3.829   8.301  0.2065  0.3348  0.7032
 7971SOL     OW25353   3.817   6.780   2.558 -0.0412 -0.1129  0.3160
 7971SOL    HW125354   3.854   6.798   2.472 -1.2180  1.4977  0.0823
 7971SOL    HW225355   3.836   6.859   2.609  0.4252 -0.9424  1.4684
 7972SOL     OW25356   1.488   6.684   1.893  0.5092  0.4289 -0.3435
 7972SOL    HW125357   1.491   6.588   1.897  2.1301  0.4845  1.1586
 7972SOL    HW225358   1.396   6.705   1.879  0.1950 -1.3439 -1.2546
 7973SOL     OW25359   1.044   6.826  11.149 -0.2455  0.1708 -0.3220
 7973SOL    HW125360   0.956   6.840  11.183 -0.9829 -0.4634 -1.8899
 7973SOL    HW225361   1.102   6.843  11.224 -1.5891  1.9750  0.3713
 7974SOL     OW25362   7.862   3.681  10.584 -0.3268  0.1043  0.1289
 7974SOL    HW125363   7.930   3.692  10.651 -0.0589 -1.2539  0.1254
 7974SOL    HW225364   7.888   3.740  10.513  0.7319 -0.2203  0.2307
 7975SOL     OW25365   1.136   3.231   4.352  0.7540 -0.3328  0.0731
 7975SOL    HW125366   1.116   3.284   4.275 -0.4696 -0.0221  0.5786
 7975SOL    HW225367   1.173   3.150   4.317  0.9181  0.1031 -0.7929
 7976SOL     OW25368   1.788   6.747   6.683  0.1329 -0.3883 -0.1347
 7976SOL    HW125369   1.763   6.717   6.770 -2.1417 -0.4841 -0.7599
 7976SOL    HW225370   1.869   6.699   6.664 -0.5625 -2.1428  1.0118
 7977SOL     OW25371   4.476   0.949   9.546 -0.1709  0.4229 -0.5306
 7977SOL    HW125372   4.555   0.933   9.495 -0.8339  2.3077 -2.2645
 7977SOL    HW225373   4.412   0.982   9.483 -1.8719  0.4155  1.0908
 7978SOL     OW25374   7.819   6.861   2.938  0.3133  0.2901 -0.1307
 7978SOL    HW125375   7.724   6.857   2.945  0.4447 -0.8164  2.0628
 7978SOL    HW225376   7.844   6.932   2.997  0.8676  0.4376 -0.5387
 7979SOL     OW25377   0.593   3.937   5.236 -0.2019 -0.3233 -0.2468
 7979SOL    HW125378   0.512   3.960   5.283 -1.1157 -2.1033 -0.8471
 7979SOL    HW225379   0.589   3.988   5.155  0.3349  1.1623  0.6240
 7980SOL     OW25380   4.802   2.226   1.514 -0.0993 -0.4752  0.3954
 7980SOL    HW125381   4.807   2.232   1.610  2.9985 -0.5707  0.3471
 7980SOL    HW225382   4.884   2.183   1.489 -0.2576  0.6468 -2.3857
 7981SOL     OW25383   0.825   6.918   6.601 -0.0627  0.2403  0.3126
 7981SOL    HW125384   0.733   6.929   6.624 -0.3578 -1.1733 -0.0660
 7981SOL    HW225385   0.826   6.918   6.505  0.6602  2.4151  0.2630
 7982SOL     OW25386   2.603   3.235   0.954 -0.1637  0.0864  0.6814
 7982SOL    HW125387   2.548   3.310   0.977 -0.2821 -0.3092  1.7536
 7982SOL    HW225388   2.657   3.220   1.032 -0.5201 -1.2551  0.7018
 7983SOL     OW25389   5.279   6.473   3.689 -0.1726 -0.0353 -0.1363
 7983SOL    HW125390   5.190   6.438   3.694 -0.6361  1.0479 -0.5094
 7983SOL    HW225391   5.328   6.408   3.640 -1.1435  0.0706 -1.2816
 7984SOL     OW25392   4.706   2.671  11.314  0.1203  0.4529  0.0034
 7984SOL    HW125393   4.761   2.594  11.326  0.1232  0.5780  0.8405
 7984SOL    HW225394   4.768   2.744  11.306  0.1074  0.4183 -0.4666
 7985SOL     OW25395   4.531   5.445   5.193  0.1359  0.2446  0.2913
 7985SOL    HW125396   4.533   5.451   5.098 -1.8648  1.2769  0.2486
 7985SOL    HW225397   4.574   5.525   5.223  1.0090 -0.2093  0.2858
 7986SOL     OW25398   3.270   7.449  10.329  0.1906  0.7159  0.2519
 7986SOL    HW125399   3.227   7.367  10.353  2.2107 -1.3246 -2.4751
 7986SOL    HW225400   3.217   7.483  10.256 -1.6928  2.9644  2.4984
 7987SOL     OW25401   0.905   4.258  10.582 -0.0768 -0.4329 -0.2320
 7987SOL    HW125402   0.942   4.233  10.667 -2.6973  0.7599  1.4259
 7987SOL    HW225403   0.856   4.181  10.553  0.9744 -0.9066 -0.8032
 7988SOL     OW25404   5.829   5.915   2.127 -0.1162 -0.3059 -0.9484
 7988SOL    HW125405   5.754   5.942   2.179  0.4987  0.3488 -0.3792
 7988SOL    HW225406   5.893   5.985   2.139  0.7129 -1.0166 -1.1482
 7989SOL     OW25407   3.900   2.575   5.584  0.1630  0.2030  0.1004
 7989SOL    HW125408   3.967   2.631   5.544 -1.0540  0.8404 -1.1569
 7989SOL    HW225409   3.820   2.628   5.580 -0.8203 -1.2531 -0.2064
 7990SOL     OW25410   3.697   5.511   0.821  0.3004  0.5150 -0.1130
 7990SOL    HW125411   3.719   5.440   0.881 -1.8006 -0.0186  0.1090
 7990SOL    HW225412   3.694   5.469   0.735 -0.0311  0.5460 -0.1154
 7991SOL     OW25413   3.702   1.288   6.515 -0.4290  0.2063 -0.6189
 7991SOL    HW125414   3.702   1.212   6.456  0.6515  0.3945 -0.8810
 7991SOL    HW225415   3.702   1.250   6.603  0.2552 -0.1059 -0.7473
 7992SOL     OW25416   6.012   4.576   0.234 -0.0054 -0.1286  0.5208
 7992SOL    HW125417   5.981   4.608   0.149  0.2996  0.3368  0.5837
 7992SOL    HW225418   6.101   4.546   0.217  0.7718  1.7174  1.0584
 7993SOL     OW25419   6.433   7.168  10.746 -0.0853  0.0572  0.3313
 7993SOL    HW125420   6.367   7.210  10.800  0.0400 -0.5857  0.9905
 7993SOL    HW225421   6.503   7.143  10.806  0.1177 -0.5485 -0.1389
 7994SOL     OW25422   5.144   6.194   0.854  0.4625  0.1758 -0.6583
 7994SOL    HW125423   5.090   6.272   0.860  1.0900  0.5342  0.6731
 7994SOL    HW225424   5.096   6.127   0.903  1.3196  0.5806  0.8017
 7995SOL     OW25425   4.448   7.021  12.368  0.5316  0.3337  0.0814
 7995SOL    HW125426   4.361   7.019  12.408  0.5888  1.5843  0.3182
 7995SOL    HW225427   4.494   7.090  12.415  0.9675  1.1061 -1.4162
 7996SOL     OW25428   2.417   0.179   5.603 -0.2217  0.5201  0.1147
 7996SOL    HW125429   2.470   0.147   5.530  0.0460  0.6580  0.2493
 7996SOL    HW225430   2.363   0.248   5.565 -1.2110 -0.4509 -0.3117
 7997SOL     OW25431   6.667   4.400  10.145  0.4466 -0.3209 -0.6038
 7997SOL    HW125432   6.643   4.407  10.238  0.4611  1.8745 -0.7145
 7997SOL    HW225433   6.631   4.315  10.118  2.0225 -1.9006  1.8160
 7998SOL     OW25434   0.853   3.937   0.512  0.3567  0.3499  0.3021
 7998SOL    HW125435   0.849   3.954   0.606  0.3720  0.7596  0.2329
 7998SOL    HW225436   0.830   4.021   0.472 -1.4933 -0.2721 -0.0532
 7999SOL     OW25437   7.746   0.677   3.745  0.3316  0.0386 -0.1163
 7999SOL    HW125438   7.726   0.751   3.687 -1.9065 -0.0684  0.4400
 7999SOL    HW225439   7.663   0.630   3.754 -0.2977  1.5025  5.2148
 8000SOL     OW25440   4.293   7.175   8.026 -0.1974 -0.1004 -0.0154
 8000SOL    HW125441   4.302   7.097   8.082  0.6411  1.2080  1.7834
 8000SOL    HW225442   4.291   7.248   8.088  1.6098  1.5145 -1.7475
 8001SOL     OW25443   1.307   5.102  10.836 -0.0985 -0.4546  0.3588
 8001SOL    HW125444   1.326   5.172  10.898  1.3938 -0.4833 -0.0332
 8001SOL    HW225445   1.330   5.138  10.751 -0.0671 -1.1543  0.0604
 8002SOL     OW25446   7.683   0.589   2.364 -0.1036  0.4577 -0.2088
 8002SOL    HW125447   7.678   0.682   2.340  0.3592  0.6086  0.2657
 8002SOL    HW225448   7.592   0.563   2.374 -0.3164  0.4893 -1.6992
 8003SOL     OW25449   7.734   6.687   6.053  0.0097 -0.3757  0.2868
 8003SOL    HW125450   7.666   6.754   6.061  0.9180  0.4566  1.5138
 8003SOL    HW225451   7.790   6.717   5.982  0.2770  0.0510  0.6737
 8004SOL     OW25452   5.390   2.235  10.446  0.2594 -0.2983  0.0142
 8004SOL    HW125453   5.422   2.325  10.441 -0.2743 -0.1358 -0.7723
 8004SOL    HW225454   5.326   2.237  10.518  0.6693 -0.1911  0.3782
 8005SOL     OW25455   1.652   2.025  10.610  0.3526 -0.0036 -0.2340
 8005SOL    HW125456   1.684   2.015  10.700 -2.2509 -0.1821  0.7634
 8005SOL    HW225457   1.628   1.937  10.582  0.7229  0.1149 -0.9577
 8006SOL     OW25458   5.101   3.149   5.507  0.0830  0.6993  0.0430
 8006SOL    HW125459   5.181   3.201   5.519  0.7306 -0.8111  3.6186
 8006SOL    HW225460   5.038   3.190   5.566  0.4223 -1.9489  2.4829
 8007SOL     OW25461   7.706   2.103  12.006 -0.3748 -0.5660 -0.6444
 8007SOL    HW125462   7.770   2.049  11.958  0.1357 -0.1794 -0.4107
 8007SOL    HW225463   7.756   2.181  12.032 -0.0131 -1.6379  2.2923
 8008SOL     OW25464   3.646   2.826   5.315 -0.9839 -0.5413 -0.7272
 8008SOL    HW125465   3.678   2.752   5.264 -0.9532 -0.8766 -0.2264
 8008SOL    HW225466   3.713   2.893   5.306 -0.3139 -1.1035  0.0133
 8009SOL     OW25467   0.732   6.276   5.213 -0.4587  0.5958  0.7101
 8009SOL    HW125468   0.800   6.326   5.167 -0.1080 -0.2729  0.2605
 8009SOL    HW225469   0.757   6.280   5.305  0.4944 -0.1366  0.4977
 8010SOL     OW25470   3.371   7.256   9.350  0.3295  0.2575  0.5889
 8010SOL    HW125471   3.465   7.260   9.333  0.7034  1.5075  2.5746
 8010SOL    HW225472   3.345   7.170   9.318  2.2325 -0.2715  0.3130
 8011SOL     OW25473   0.328   2.543   5.752 -0.0768 -0.0540  0.2159
 8011SOL    HW125474   0.263   2.612   5.760 -2.6180 -2.1122 -1.0872
 8011SOL    HW225475   0.316   2.488   5.829  0.8493  0.1104  0.4853
 8012SOL     OW25476   3.168   5.324  11.138  0.0050  0.0166  0.4722
 8012SOL    HW125477   3.257   5.358  11.146  0.1913 -0.5631  0.9024
 8012SOL    HW225478   3.139   5.312  11.229  1.2951 -4.5113  0.5083
 8013SOL     OW25479   4.759   2.680  12.082  0.2796  0.7767  0.7488
 8013SOL    HW125480   4.827   2.649  12.143 -0.3760  0.2176  1.2117
 8013SOL    HW225481   4.792   2.764  12.051  0.8128  0.8973  1.5929
 8014SOL     OW25482   2.340   4.240   1.374  0.7580  0.6405  0.1006
 8014SOL    HW125483   2.268   4.284   1.329  1.0555  1.4324  0.3704
 8014SOL    HW225484   2.298   4.177   1.432  0.3966 -1.4595 -2.2694
 8015SOL     OW25485   0.270   4.525  12.463 -0.0280  0.0282 -1.0101
 8015SOL    HW125486   0.294   4.449  12.410  0.0937  0.0502 -0.9881
 8015SOL    HW225487   0.280   4.600  12.404 -0.2301  0.0184 -1.0555
 8016SOL     OW25488   2.904   3.164   7.632  0.2106 -0.5476 -0.4033
 8016SOL    HW125489   2.863   3.208   7.558 -1.6324 -0.8566  0.3780
 8016SOL    HW225490   2.954   3.232   7.677  0.3436 -0.0956 -1.2225
 8017SOL     OW25491   4.094   1.042   2.021  0.6779  0.4803 -0.3221
 8017SOL    HW125492   3.999   1.041   2.006  0.5979 -0.6895  0.1350
 8017SOL    HW225493   4.103   1.036   2.116  1.2164  0.9770 -0.3350
 8018SOL     OW25494   0.846   1.543   3.881  0.1654  0.2341 -0.3203
 8018SOL    HW125495   0.765   1.549   3.930  1.4949 -1.9410  2.3841
 8018SOL    HW225496   0.829   1.479   3.812 -0.5335  0.1525 -0.0710
 8019SOL     OW25497   0.327   0.989  10.874  0.4943 -0.1381  0.6187
 8019SOL    HW125498   0.362   0.904  10.847  0.6007  0.2498 -0.5278
 8019SOL    HW225499   0.394   1.052  10.847 -0.3650  0.4632 -0.1691
 8020SOL     OW25500   0.688   3.471  10.174 -0.1346  0.3314  0.3546
 8020SOL    HW125501   0.604   3.481  10.130 -0.3454 -2.4392 -0.0120
 8020SOL    HW225502   0.752   3.505  10.112 -0.8814  1.8627  0.3702
 8021SOL     OW25503   3.378   1.013   1.959 -0.2220  0.2444  0.3179
 8021SOL    HW125504   3.331   1.048   2.035 -1.7466 -0.5426 -0.2159
 8021SOL    HW225505   3.360   1.075   1.889 -0.1201  0.1595  0.2159
 8022SOL     OW25506   6.711   4.832   0.176 -0.4484  0.0124  0.4379
 8022SOL    HW125507   6.633   4.776   0.171 -0.3585 -0.0604 -0.3291
 8022SOL    HW225508   6.679   4.915   0.209 -1.4348  0.9415 -2.4702
 8023SOL     OW25509   2.691   6.710  11.838  0.5691  0.3489 -0.4692
 8023SOL    HW125510   2.749   6.686  11.766  1.9814  0.2078  0.6565
 8023SOL    HW225511   2.721   6.797  11.864 -0.8371  0.9907 -0.9176
 8024SOL     OW25512   7.760   0.780   7.095  0.3036  0.2050 -0.4236
 8024SOL    HW125513   7.714   0.849   7.143  1.2867  0.2346  0.5421
 8024SOL    HW225514   7.831   0.826   7.051  0.6137 -0.0959 -0.2480
 8025SOL     OW25515   0.126   6.207   8.463  0.0875 -0.1501 -0.0729
 8025SOL    HW125516   0.070   6.129   8.461  0.1649 -0.1889 -1.1407
 8025SOL    HW225517   0.089   6.266   8.398 -0.2668  0.9462  1.0750
 8026SOL     OW25518   1.903   4.205  10.142  0.2899  0.1381 -0.1601
 8026SOL    HW125519   1.923   4.235  10.053 -0.5164  0.5056 -0.2251
 8026SOL    HW225520   1.950   4.122  10.150  2.8382  1.5006  0.1373
 8027SOL     OW25521   7.787   7.681   4.899  0.0716  0.2473 -0.0902
 8027SOL    HW125522   7.774   7.705   4.807 -0.8541 -0.2246 -0.0953
 8027SOL    HW225523   7.882   7.675   4.909  0.1738 -0.0090 -1.1075
 8028SOL     OW25524   3.727   1.523   5.385  0.1108 -0.0495  0.7852
 8028SOL    HW125525   3.659   1.549   5.447  1.1613  0.3708  1.7935
 8028SOL    HW225526   3.808   1.559   5.422  0.6500  1.0645 -1.3356
 8029SOL     OW25527   3.006   2.775   5.707  0.7996 -0.5397 -0.3602
 8029SOL    HW125528   3.054   2.847   5.668 -0.4083 -0.2058 -1.3011
 8029SOL    HW225529   3.058   2.749   5.783  2.5693 -0.3658 -1.4562
 8030SOL     OW25530   0.416   0.758   2.777  0.1953  0.7645  0.1130
 8030SOL    HW125531   0.327   0.769   2.810  0.9876  1.9932  2.0432
 8030SOL    HW225532   0.454   0.689   2.832  0.6525  0.7388 -0.2229
 8031SOL     OW25533   0.153   6.009  10.626 -0.5648 -0.4139  0.4097
 8031SOL    HW125534   0.173   5.980  10.715  0.7867  0.2304  0.3341
 8031SOL    HW225535   0.237   6.009  10.581 -0.7269  2.0363 -0.0287
 8032SOL     OW25536   6.339   0.161   0.808  0.1766 -0.3437  0.5627
 8032SOL    HW125537   6.367   0.071   0.793 -0.9722 -0.9798  1.9456
 8032SOL    HW225538   6.259   0.153   0.860 -0.3403  1.4710  0.1189
 8033SOL     OW25539   3.631   4.658   1.608 -1.0076  0.0899 -0.2340
 8033SOL    HW125540   3.642   4.623   1.519  0.0194  0.7982 -0.3989
 8033SOL    HW225541   3.625   4.753   1.596  0.7612  0.3371  0.5641
 8034SOL     OW25542   0.193   3.202   4.334 -0.6270 -0.6428 -0.2758
 8034SOL    HW125543   0.184   3.168   4.424 -0.9125 -0.5034 -0.2515
 8034SOL    HW225544   0.207   3.124   4.281  0.0109 -0.6925 -0.0530
 8035SOL     OW25545   4.050   7.252   2.741  0.1886 -0.3216 -0.1273
 8035SOL    HW125546   3.975   7.222   2.689 -0.6098 -0.3851  1.0137
 8035SOL    HW225547   4.011   7.301   2.813  1.1980 -0.8688  0.8301
 8036SOL     OW25548   3.822   7.195   0.532  0.4944  0.0206  0.0058
 8036SOL    HW125549   3.855   7.175   0.444  0.6573 -1.4979  0.3912
 8036SOL    HW225550   3.889   7.160   0.591 -0.5449 -0.7469  0.7643
 8037SOL     OW25551   0.182   0.627   1.320 -0.0589  0.4458 -0.8693
 8037SOL    HW125552   0.271   0.594   1.332 -0.1846  0.4414  0.1197
 8037SOL    HW225553   0.153   0.588   1.237  0.0141 -1.4962 -0.0424
 8038SOL     OW25554   6.221   5.723   1.596 -0.3508  0.2480 -0.2043
 8038SOL    HW125555   6.131   5.739   1.625 -0.4971  1.0233 -1.0327
 8038SOL    HW225556   6.253   5.809   1.568  0.7098  0.0048  0.2380
 8039SOL     OW25557   7.979   3.008   7.480 -0.1938 -0.1803  0.0727
 8039SOL    HW125558   7.941   2.921   7.489 -0.3859 -0.4046 -2.1546
 8039SOL    HW225559   7.937   3.044   7.401  0.9280  1.3587  0.1276
 8040SOL     OW25560   1.549   6.765  10.375 -0.1209 -0.4029  0.1848
 8040SOL    HW125561   1.640   6.779  10.349  0.0679  1.3000  1.5885
 8040SOL    HW225562   1.518   6.852  10.402 -1.2928 -1.4203  2.3663
 8041SOL     OW25563   3.041   1.779   7.440  0.0659  0.0051  0.3368
 8041SOL    HW125564   3.032   1.870   7.410 -0.3538 -0.3311 -0.6050
 8041SOL    HW225565   3.019   1.727   7.363  0.5947 -0.8991  0.7859
 8042SOL     OW25566   2.387   4.587   3.881  0.1129 -0.4239 -0.0330
 8042SOL    HW125567   2.482   4.599   3.879  0.0618  0.0685  0.2701
 8042SOL    HW225568   2.352   4.674   3.864 -0.2800 -0.3481  1.0900
 8043SOL     OW25569   5.552   7.748   7.818 -0.1939  0.3356  0.3494
 8043SOL    HW125570   5.505   7.751   7.734  0.7375  0.2160 -0.1912
 8043SOL    HW225571   5.627   7.805   7.805 -0.4084  0.8652  1.3516
 8044SOL     OW25572   5.538   0.716   0.254  0.0586 -0.6090 -0.3598
 8044SOL    HW125573   5.584   0.632   0.245  0.6605 -0.3074 -0.1346
 8044SOL    HW225574   5.562   0.747   0.341  0.2832  0.0673 -0.6605
 8045SOL     OW25575   0.622   0.806  12.342 -0.1063  0.3913  0.1860
 8045SOL    HW125576   0.624   0.860  12.421  2.2152  0.1655  0.3508
 8045SOL    HW225577   0.655   0.720  12.370  0.7481  0.3006 -0.9991
 8046SOL     OW25578   5.323   0.730   2.281 -0.4012 -0.8121  0.0096
 8046SOL    HW125579   5.251   0.738   2.343  0.9074 -1.4214  1.6741
 8046SOL    HW225580   5.292   0.775   2.202 -1.5422  1.4195  1.6105
 8047SOL     OW25581   2.502   3.341   1.850  0.1308 -0.0473  0.2725
 8047SOL    HW125582   2.574   3.349   1.913  0.9247  0.3216 -0.6381
 8047SOL    HW225583   2.454   3.423   1.858  0.8380  0.4427 -0.2933
 8048SOL     OW25584   0.604   5.507  12.278 -0.3687  0.3460 -0.5009
 8048SOL    HW125585   0.567   5.424  12.247  0.1675 -0.2300  0.3520
 8048SOL    HW225586   0.528   5.562  12.296 -0.7377 -0.0326 -0.8708
 8049SOL     OW25587   6.266   6.948   2.549 -0.2911 -0.3898  0.0048
 8049SOL    HW125588   6.327   6.887   2.589  1.0623  1.1171  0.3754
 8049SOL    HW225589   6.300   6.962   2.461  0.7448  1.4579  0.6414
 8050SOL     OW25590   2.724   3.212   2.426  0.0218 -0.8459 -0.1883
 8050SOL    HW125591   2.782   3.278   2.464  0.1696 -0.6654 -0.7229
 8050SOL    HW225592   2.737   3.219   2.332 -1.1831 -0.5078 -0.3526
 8051SOL     OW25593   7.808   6.905   5.006  0.0672 -0.0716  0.3276
 8051SOL    HW125594   7.823   6.969   4.936 -2.1433  0.2353  0.0526
 8051SOL    HW225595   7.895   6.879   5.034  1.1363  3.4489  0.7969
 8052SOL     OW25596   0.975   6.344  10.834  0.6442 -0.1213  0.3161
 8052SOL    HW125597   1.025   6.424  10.819 -0.3853  0.3495 -0.8320
 8052SOL    HW225598   0.992   6.322  10.925  2.5550  0.2561  0.1019
 8053SOL     OW25599   6.959   0.564   6.396  0.4725 -0.0826 -0.2799
 8053SOL    HW125600   7.010   0.630   6.442 -0.1334  0.1169  0.1174
 8053SOL    HW225601   6.971   0.584   6.303  1.0666 -0.0116 -0.1949
 8054SOL     OW25602   7.468   7.016   5.603 -0.5739  0.6423  0.3859
 8054SOL    HW125603   7.537   7.023   5.669 -1.9386 -0.3062  1.9667
 8054SOL    HW225604   7.471   6.925   5.575 -0.9366  0.6932  0.1786
 8055SOL     OW25605   4.179   6.843  12.296 -0.2454 -0.3707 -0.3536
 8055SOL    HW125606   4.192   6.857  12.389 -0.1627 -1.9048 -0.1059
 8055SOL    HW225607   4.093   6.802  12.289  0.8634 -2.7981 -0.6464
 8056SOL     OW25608   5.494   1.906   7.416 -0.2893  0.0951  0.5756
 8056SOL    HW125609   5.528   1.906   7.326  1.0161 -2.0302  1.0030
 8056SOL    HW225610   5.405   1.942   7.408 -0.2840 -0.2382 -1.5948
 8057SOL     OW25611   4.204   1.877  10.102 -0.0141 -1.3223  0.0247
 8057SOL    HW125612   4.284   1.833  10.075  0.2987 -1.7668  1.5964
 8057SOL    HW225613   4.225   1.970  10.098  0.2172 -1.3916 -0.5860
 8058SOL     OW25614   0.843   0.206   5.253 -0.3764 -0.0747  0.9777
 8058SOL    HW125615   0.930   0.245   5.262 -0.6201  0.5138  0.8332
 8058SOL    HW225616   0.854   0.141   5.184 -0.3673  0.9956 -0.0743
 8059SOL     OW25617   5.947   4.212  11.911  0.2011 -0.0151 -0.5509
 8059SOL    HW125618   5.916   4.130  11.950  0.1813 -0.3009 -1.1579
 8059SOL    HW225619   5.905   4.280  11.963 -1.7131 -0.3783 -1.5097
 8060SOL     OW25620   5.894   2.460  10.993 -0.2510 -0.3619  0.2330
 8060SOL    HW125621   5.850   2.530  11.042 -0.5676 -0.7649  0.5338
 8060SOL    HW225622   5.823   2.411  10.952 -0.0188 -0.4033 -0.1211
 8061SOL     OW25623   2.484   6.543   9.973  1.0044  0.5275  0.3344
 8061SOL    HW125624   2.468   6.618  10.030 -0.3122  0.3106  0.2901
 8061SOL    HW225625   2.417   6.550   9.905 -0.3593 -1.6505  1.3383
 8062SOL     OW25626   6.690   5.455   3.876 -0.5635  0.7454  0.3157
 8062SOL    HW125627   6.659   5.405   3.951 -1.6703  1.8011  0.5935
 8062SOL    HW225628   6.713   5.541   3.912 -1.4155  1.3753 -0.5596
 8063SOL     OW25629   0.947   2.986   4.480 -0.4976 -0.4237 -0.0560
 8063SOL    HW125630   1.016   3.031   4.432 -1.3691 -0.9253 -1.8749
 8063SOL    HW225631   0.907   3.054   4.535 -1.1207  0.8178 -1.9646
 8064SOL     OW25632   0.402   0.218   8.658 -0.4830 -0.2607 -0.0442
 8064SOL    HW125633   0.449   0.138   8.683  1.3837  0.6879 -0.3354
 8064SOL    HW225634   0.375   0.202   8.568  0.1551 -0.4496 -0.2076
 8065SOL     OW25635   4.422   1.911  11.813  0.6571 -0.0763 -0.0929
 8065SOL    HW125636   4.346   1.963  11.786 -1.0424 -1.4911  1.6963
 8065SOL    HW225637   4.385   1.837  11.861  3.2062 -0.5434  1.3378
 8066SOL     OW25638   5.427   4.623   0.998 -0.3065 -0.3021  0.6122
 8066SOL    HW125639   5.491   4.564   1.037  1.4139  0.2063 -1.2683
 8066SOL    HW225640   5.424   4.698   1.058 -0.1039 -0.8845  1.3708
 8067SOL     OW25641   5.123   2.886   2.446  0.0404  0.0543 -0.0267
 8067SOL    HW125642   5.085   2.950   2.506 -0.3991  0.5035 -0.7667
 8067SOL    HW225643   5.129   2.932   2.362  1.2036 -0.3721 -0.1876
 8068SOL     OW25644   6.226   4.150   7.037  0.0934 -0.3620  0.4366
 8068SOL    HW125645   6.141   4.129   7.077 -0.4113  0.3571 -0.2268
 8068SOL    HW225646   6.257   4.227   7.086 -0.6254  0.6509 -0.6564
 8069SOL     OW25647   2.002   0.918   9.780  0.8079 -0.2335 -0.3399
 8069SOL    HW125648   1.988   1.013   9.774  1.2489 -0.2645 -2.3371
 8069SOL    HW225649   2.040   0.906   9.867 -0.0906  1.2947  0.3249
 8070SOL     OW25650   0.596   3.987   6.599  0.5509 -0.9114 -0.4975
 8070SOL    HW125651   0.521   3.929   6.613  1.0565 -1.1654  1.3213
 8070SOL    HW225652   0.559   4.062   6.552 -0.6414 -1.4883 -0.5208
 8071SOL     OW25653   2.658   1.288  11.179  0.6205 -0.0872 -0.1014
 8071SOL    HW125654   2.703   1.216  11.135 -0.7453 -0.1591 -1.4688
 8071SOL    HW225655   2.669   1.270  11.272  1.5936 -1.2214 -0.4152
 8072SOL     OW25656   0.984   1.305   5.418 -0.1841  0.0319  0.5739
 8072SOL    HW125657   0.934   1.231   5.384  1.1566 -0.1629 -1.0880
 8072SOL    HW225658   0.931   1.382   5.394 -0.4051 -0.2598  0.1066
 8073SOL     OW25659   5.079   7.735   3.727 -0.1336  0.7520  0.0540
 8073SOL    HW125660   5.119   7.678   3.792  3.1094  1.8532 -0.7949
 8073SOL    HW225661   4.986   7.737   3.751 -0.5106 -4.6093  0.2445
 8074SOL     OW25662   5.291   7.760   2.340  0.4151 -0.3999  0.3814
 8074SOL    HW125663   5.378   7.765   2.379  1.3003 -1.1786 -1.3972
 8074SOL    HW225664   5.306   7.766   2.246 -1.5539  0.4224  0.0634
 8075SOL     OW25665   6.698   7.353   7.781 -0.3512  0.2716  0.1677
 8075SOL    HW125666   6.777   7.394   7.745 -0.2242 -0.9329 -1.0456
 8075SOL    HW225667   6.690   7.270   7.732 -1.6408 -0.2394  1.1767
 8076SOL     OW25668   1.467   2.172   2.431 -0.5524 -0.0295 -0.2365
 8076SOL    HW125669   1.460   2.088   2.387 -1.0730  0.2686 -0.7425
 8076SOL    HW225670   1.377   2.205   2.435 -0.2959  0.7539 -0.5630
 8077SOL     OW25671   1.566   6.620   7.947  1.0982 -0.3152  0.0919
 8077SOL    HW125672   1.516   6.621   7.865  1.1635  0.3880  0.0497
 8077SOL    HW225673   1.503   6.592   8.013  0.4099  1.2959  0.1665
 8078SOL     OW25674   1.478   1.132   5.974  1.0191 -0.1184  1.1759
 8078SOL    HW125675   1.528   1.166   5.900 -0.6595  1.8962  0.8753
 8078SOL    HW225676   1.535   1.148   6.050  2.5415 -1.7501  0.4396
 8079SOL     OW25677   4.329   2.691   3.257 -0.4311  0.1064 -0.3946
 8079SOL    HW125678   4.388   2.767   3.249 -1.4998  1.0123  0.0111
 8079SOL    HW225679   4.247   2.721   3.219 -0.9816 -0.7448  0.0982
 8080SOL     OW25680   7.092   1.809   6.334 -0.2759 -0.0062 -0.6876
 8080SOL    HW125681   7.007   1.852   6.323 -0.6295 -0.4189  0.3274
 8080SOL    HW225682   7.132   1.853   6.409  0.2974  0.0148 -1.0023
 8081SOL     OW25683   7.381   0.657  10.598  0.2821  0.6062  0.0653
 8081SOL    HW125684   7.360   0.681  10.508 -0.5182 -1.8492 -0.4812
 8081SOL    HW225685   7.420   0.570  10.592 -0.6633 -0.0360  2.1540
 8082SOL     OW25686   5.569   0.455   5.295  0.5479  0.1310  0.2320
 8082SOL    HW125687   5.627   0.437   5.221 -0.8494 -0.9374 -0.6552
 8082SOL    HW225688   5.504   0.384   5.293  1.5384 -1.1298  3.6709
 8083SOL     OW25689   5.862   4.147   1.471  0.2468  0.0671  0.1969
 8083SOL    HW125690   5.786   4.172   1.522 -0.1747 -0.3780 -0.2066
 8083SOL    HW225691   5.888   4.228   1.425  0.9431  0.6035  1.4866
 8084SOL     OW25692   1.639   0.418   0.790  0.4735  0.6488 -0.0427
 8084SOL    HW125693   1.628   0.513   0.786  2.6060  1.0073  1.2378
 8084SOL    HW225694   1.582   0.390   0.862 -0.8088  0.7769 -0.9567
 8085SOL     OW25695   7.319   2.368   3.075  0.1864  0.0955 -0.1988
 8085SOL    HW125696   7.317   2.451   3.028  2.1220  0.7694  0.8093
 8085SOL    HW225697   7.301   2.391   3.166 -0.1425 -0.7284 -0.0404
 8086SOL     OW25698   6.302   5.680   4.925  0.8411 -0.2400 -0.2905
 8086SOL    HW125699   6.361   5.737   4.875  1.0938 -0.7953 -0.6326
 8086SOL    HW225700   6.238   5.740   4.963  0.4515  0.1646 -1.5432
 8087SOL     OW25701   6.126   2.851   7.886 -0.2630 -0.1889 -0.2049
 8087SOL    HW125702   6.154   2.927   7.936  0.5771  1.0913 -2.4655
 8087SOL    HW225703   6.032   2.863   7.874 -0.2430  0.1439 -0.0231
 8088SOL     OW25704   3.277   0.262  12.419 -0.1228  0.3320 -0.4418
 8088SOL    HW125705   3.347   0.323  12.440 -0.0947 -0.0959  0.7622
 8088SOL    HW225706   3.259   0.278  12.326  1.2156  0.7912 -0.6465
 8089SOL     OW25707   2.350   7.688  10.556  0.3396  0.3225  0.2071
 8089SOL    HW125708   2.345   7.741  10.635 -0.1104  0.0931  0.3343
 8089SOL    HW225709   2.270   7.708  10.508  0.4150  0.1537  0.0076
 8090SOL     OW25710   3.599   1.167   9.281 -0.4341 -0.1708  0.4162
 8090SOL    HW125711   3.594   1.111   9.203 -2.1423  0.2311  0.1919
 8090SOL    HW225712   3.691   1.193   9.286 -0.0929 -1.0285 -0.8819
 8091SOL     OW25713   5.632   5.743   0.562  0.4107  0.4411 -0.3976
 8091SOL    HW125714   5.598   5.705   0.643  0.4524 -1.1661 -1.0995
 8091SOL    HW225715   5.708   5.794   0.590 -0.3877  1.0457  0.7269
 8092SOL     OW25716   6.784   4.625  11.786 -0.3072 -0.6599  0.4057
 8092SOL    HW125717   6.750   4.710  11.759 -0.1158 -0.0280  2.0349
 8092SOL    HW225718   6.849   4.646  11.854 -1.2691 -2.1464  1.8572
 8093SOL     OW25719   1.010   0.145  12.270 -0.1627 -0.2106  0.0198
 8093SOL    HW125720   1.021   0.182  12.357 -2.7952  0.9130 -0.0498
 8093SOL    HW225721   0.999   0.221  12.213  1.7545 -0.9140 -1.3919
 8094SOL     OW25722   3.544   0.434   1.434 -0.0043 -0.3056  0.3526
 8094SOL    HW125723   3.612   0.475   1.380 -1.5957  0.6403 -1.0470
 8094SOL    HW225724   3.566   0.458   1.523  0.5336  1.4952 -0.2250
 8095SOL     OW25725   4.531   2.740  11.911 -0.5974  0.3716  0.4865
 8095SOL    HW125726   4.581   2.798  11.854 -1.9044  1.1078  0.0696
 8095SOL    HW225727   4.594   2.713  11.978  0.2451  1.6272  0.2269
 8096SOL     OW25728   3.482   6.035  11.467 -0.0616 -0.4444 -1.0446
 8096SOL    HW125729   3.483   6.015  11.374  1.0230 -1.7180 -0.7877
 8096SOL    HW225730   3.401   5.994  11.500 -1.4326  1.5985 -1.7054
 8097SOL     OW25731   4.368   2.133   9.444 -0.0046  0.3282 -0.3994
 8097SOL    HW125732   4.311   2.073   9.493  0.2426  0.5771  0.1989
 8097SOL    HW225733   4.311   2.206   9.421  0.2361  0.9230  0.8323
 8098SOL     OW25734   5.774   0.467   4.786  0.3432 -0.0742 -0.0710
 8098SOL    HW125735   5.824   0.429   4.859 -0.1751 -0.2142  0.2146
 8098SOL    HW225736   5.696   0.412   4.779 -1.0435  1.6519  1.1556
 8099SOL     OW25737   6.510   0.636   2.038  0.0001  0.3665 -0.0158
 8099SOL    HW125738   6.500   0.729   2.056  0.9824  0.3913  0.5073
 8099SOL    HW225739   6.476   0.592   2.116 -1.0316  0.2563 -0.5174
 8100SOL     OW25740   5.742   5.148  10.229 -0.0023 -0.0162  0.4827
 8100SOL    HW125741   5.756   5.056  10.252  0.3246 -0.6507 -1.9635
 8100SOL    HW225742   5.828   5.189  10.238 -0.3724  0.3697  2.6810
 8101SOL     OW25743   4.438   3.321   4.898 -0.1686 -0.6173 -0.0101
 8101SOL    HW125744   4.485   3.330   4.815  0.4334  1.9018  0.5327
 8101SOL    HW225745   4.352   3.286   4.873  0.0502 -0.0566 -1.6845
 8102SOL     OW25746   2.404   1.411   8.133  0.3173 -0.2405  0.4010
 8102SOL    HW125747   2.418   1.323   8.099 -0.7335 -0.1528 -0.3004
 8102SOL    HW225748   2.391   1.399   8.227 -2.0774 -1.1401  0.0208
 8103SOL     OW25749   7.000   2.226   8.756 -0.1096 -0.8894 -0.2324
 8103SOL    HW125750   7.069   2.254   8.816  0.3526 -1.1130 -0.6582
 8103SOL    HW225751   7.013   2.132   8.746  2.5162 -0.3776 -3.9418
 8104SOL     OW25752   2.636   2.770   5.341  0.1637  0.2050 -0.2285
 8104SOL    HW125753   2.686   2.778   5.422 -1.0540  0.1254  0.5567
 8104SOL    HW225754   2.545   2.767   5.369 -0.2518 -0.5117 -1.5538
 8105SOL     OW25755   5.270   6.762   2.579  0.0050  0.0265  0.0494
 8105SOL    HW125756   5.315   6.834   2.534 -1.2536 -0.4283 -2.0923
 8105SOL    HW225757   5.314   6.684   2.547  0.0032 -0.2556  0.7313
 8106SOL     OW25758   1.623   2.017   8.528  0.5167  0.1193 -0.2713
 8106SOL    HW125759   1.608   2.048   8.439 -2.5176 -0.1483  0.0371
 8106SOL    HW225760   1.644   2.096   8.578 -2.7367  1.1908 -0.3571
 8107SOL     OW25761   0.502   3.966   3.755  0.0451 -0.2222 -0.3619
 8107SOL    HW125762   0.462   3.910   3.689 -1.6248 -0.3221  0.6739
 8107SOL    HW225763   0.518   3.908   3.829 -3.2269  0.8428  1.3566
 8108SOL     OW25764   4.510   2.376   0.475  0.1610  0.5178 -0.0057
 8108SOL    HW125765   4.445   2.322   0.520  0.2065  0.4738  0.0065
 8108SOL    HW225766   4.537   2.440   0.541  0.0415  0.6127 -0.0468
 8109SOL     OW25767   4.167   1.259   8.134  0.0550 -0.3514  0.3543
 8109SOL    HW125768   4.095   1.199   8.150  0.3267 -0.6411  0.4898
 8109SOL    HW225769   4.221   1.216   8.068 -1.4668  1.1595 -2.0395
 8110SOL     OW25770   6.843   6.752   5.674 -0.4276 -0.1018  0.1004
 8110SOL    HW125771   6.879   6.829   5.630 -1.2643  1.2653  1.6904
 8110SOL    HW225772   6.751   6.773   5.688 -0.6047 -1.2691  0.8390
 8111SOL     OW25773   5.930   3.598   0.331  0.4449  0.1582  0.5693
 8111SOL    HW125774   5.960   3.576   0.243  0.6453  0.8020  0.4670
 8111SOL    HW225775   5.835   3.612   0.322  0.3075 -0.6805  0.6478
 8112SOL     OW25776   2.263   5.556   9.477  0.1126  0.0583  0.2339
 8112SOL    HW125777   2.238   5.606   9.400  0.2200  1.3502  1.0163
 8112SOL    HW225778   2.292   5.472   9.442 -0.0350  0.5377 -1.1105
 8113SOL     OW25779   6.066   2.025   3.287 -0.7395  0.0256  0.1590
 8113SOL    HW125780   6.127   2.098   3.294 -0.4258 -0.2218 -0.0218
 8113SOL    HW225781   6.028   2.034   3.200  1.4441 -1.7112 -1.0445
 8114SOL     OW25782   7.909   7.273   9.613 -0.6744 -0.7478 -0.1211
 8114SOL    HW125783   7.892   7.179   9.625  1.0910 -1.2043 -0.9100
 8114SOL    HW225784   7.848   7.300   9.544 -2.1909 -0.9434  1.0807
 8115SOL     OW25785   1.061   2.772   6.757  0.2119  0.2831  0.0720
 8115SOL    HW125786   0.990   2.721   6.720 -0.2128  0.3050  0.8448
 8115SOL    HW225787   1.022   2.820   6.830  0.4480  2.1931 -0.9904
 8116SOL     OW25788   3.151   0.103  11.320  0.4239 -0.4089 -0.0151
 8116SOL    HW125789   3.092   0.134  11.252 -0.5683 -1.6876  0.2164
 8116SOL    HW225790   3.143   0.168  11.390  0.0850 -0.0312 -0.3976
 8117SOL     OW25791   5.968   5.395   2.548  0.2488  0.5913 -0.0483
 8117SOL    HW125792   6.051   5.414   2.593 -0.6850  2.3165  1.0680
 8117SOL    HW225793   5.907   5.375   2.618  0.0379 -2.3351 -0.9529
 8118SOL     OW25794   1.375   0.835   0.063  0.5925  0.1685 -0.0783
 8118SOL    HW125795   1.362   0.909   0.005  0.4832  0.0335 -0.2291
 8118SOL    HW225796   1.436   0.866   0.130 -1.3122  1.1896  1.2935
 8119SOL     OW25797   5.756   4.045   0.837  0.4537  0.1843  0.6199
 8119SOL    HW125798   5.704   4.124   0.820  0.9089  0.5157  0.7423
 8119SOL    HW225799   5.800   4.028   0.753 -0.3994 -0.5193  0.2962
 8120SOL     OW25800   5.230   7.291  10.336  0.3745 -0.3572  0.2177
 8120SOL    HW125801   5.301   7.334  10.288 -0.4030 -0.7113 -1.3510
 8120SOL    HW225802   5.160   7.282  10.271 -0.8295 -0.6936  1.5105
 8121SOL     OW25803   6.594   4.253   2.938 -0.1843 -0.2414  0.6270
 8121SOL    HW125804   6.632   4.175   2.977 -0.9507 -0.7135  0.4516
 8121SOL    HW225805   6.659   4.283   2.874 -0.0527 -0.9577  0.4236
 8122SOL     OW25806   3.168   4.589  11.154  0.4830  0.0495  0.8145
 8122SOL    HW125807   3.192   4.504  11.118  0.7048  0.1698  0.6786
 8122SOL    HW225808   3.074   4.582  11.172  0.5080 -0.2335  0.8341
 8123SOL     OW25809   3.600   7.420  11.989 -0.2868  0.0049  0.2343
 8123SOL    HW125810   3.588   7.441  11.897 -0.4013  0.8647  0.4373
 8123SOL    HW225811   3.695   7.421  12.002 -0.1484 -1.9631 -0.2716
 8124SOL     OW25812   1.418   5.441  11.916 -0.1291  0.1136 -0.0320
 8124SOL    HW125813   1.459   5.517  11.873  0.1595 -0.6869 -1.2087
 8124SOL    HW225814   1.354   5.480  11.976  1.6211  1.3761  1.1345
 8125SOL     OW25815   7.249   5.317   5.636 -0.9148  0.4809  0.6829
 8125SOL    HW125816   7.172   5.361   5.602 -0.8709  0.8537  1.0518
 8125SOL    HW225817   7.215   5.252   5.698 -0.9767  0.0334  0.1811
 8126SOL     OW25818   4.516   3.769  10.903  0.1300  0.3286 -0.5193
 8126SOL    HW125819   4.566   3.735  10.977  0.2046 -0.6204 -0.9917
 8126SOL    HW225820   4.438   3.808  10.942 -0.6284 -1.5958 -0.0333
 8127SOL     OW25821   4.935   7.022   2.998 -0.0267  0.0358 -0.0122
 8127SOL    HW125822   4.874   6.970   2.945 -1.0532 -0.1952  1.3410
 8127SOL    HW225823   4.964   6.962   3.067  1.9403  0.0780 -0.7290
 8128SOL     OW25824   0.990   6.415   1.020  0.0345 -0.3864 -0.5772
 8128SOL    HW125825   1.015   6.335   1.065  0.4962  0.1794  0.2125
 8128SOL    HW225826   1.070   6.468   1.018 -0.0682 -0.2480 -1.7707
 8129SOL     OW25827   0.872   4.102  10.263  0.0596 -0.0825 -1.1326
 8129SOL    HW125828   0.931   4.047  10.316 -1.1829  2.4313  3.4306
 8129SOL    HW225829   0.791   4.051  10.259 -0.5273  0.4814  1.5345
 8130SOL     OW25830   6.100   6.531   5.158  0.0134 -0.1088  0.2487
 8130SOL    HW125831   6.063   6.453   5.199  1.3968  0.0532  1.9623
 8130SOL    HW225832   6.037   6.601   5.178 -1.0360 -0.6841 -0.9573
 8131SOL     OW25833   4.445   0.330   7.321  0.1417  0.0189 -0.2137
 8131SOL    HW125834   4.391   0.348   7.399  0.8974 -1.6971  0.7687
 8131SOL    HW225835   4.393   0.267   7.271  1.3830 -2.1255  1.0454
 8132SOL     OW25836   2.049   3.390   9.047  0.4545 -0.1002  0.3251
 8132SOL    HW125837   2.044   3.309   9.097  0.7271 -1.2185 -1.3653
 8132SOL    HW225838   1.960   3.404   9.016  0.3707  0.3601  0.7671
 8133SOL     OW25839   6.109   6.328   4.174  0.0025  0.0501 -0.7099
 8133SOL    HW125840   6.090   6.236   4.192 -0.0652 -0.9046 -4.6392
 8133SOL    HW225841   6.029   6.362   4.134  0.9688  0.8714 -2.0711
 8134SOL     OW25842   0.612   7.749   1.012 -0.4832 -0.2698  0.2245
 8134SOL    HW125843   0.577   7.660   1.015  0.7437 -0.8902 -2.0067
 8134SOL    HW225844   0.672   7.753   1.087 -1.1731 -1.0087  0.8433
 8135SOL     OW25845   2.633   3.139   3.238  0.4036  0.0034 -0.4675
 8135SOL    HW125846   2.591   3.194   3.172 -1.7371  1.5805  1.9866
 8135SOL    HW225847   2.672   3.202   3.299 -0.2376 -1.2075  1.2851
 8136SOL     OW25848   7.739   7.564  10.502  0.1043 -0.6242 -0.0488
 8136SOL    HW125849   7.805   7.605  10.445 -0.9731 -1.0102 -1.6471
 8136SOL    HW225850   7.663   7.621  10.493 -0.2941 -1.0705  0.4942
 8137SOL     OW25851   0.364   6.764   2.259  0.0095  0.1980 -0.0588
 8137SOL    HW125852   0.277   6.793   2.233  0.6475 -0.0693 -2.7024
 8137SOL    HW225853   0.353   6.670   2.275  0.0157 -0.0472 -1.4352
 8138SOL     OW25854   6.456   6.770   6.586 -0.1434  0.3662 -0.3003
 8138SOL    HW125855   6.516   6.845   6.588 -0.1115  0.3531  1.8953
 8138SOL    HW225856   6.369   6.809   6.587 -0.1542  0.4944  2.6688
 8139SOL     OW25857   1.565   4.512   1.931  0.4929  0.0787 -0.5873
 8139SOL    HW125858   1.571   4.572   1.856  0.4619  0.7061 -0.0985
 8139SOL    HW225859   1.504   4.555   1.991  0.9692 -0.1306  0.0575
 8140SOL     OW25860   5.027   6.386  11.910  0.0527  0.1574 -0.0216
 8140SOL    HW125861   5.076   6.328  11.968 -1.7009 -1.6696 -0.2779
 8140SOL    HW225862   4.942   6.343  11.898 -1.4366  2.8622 -0.1000
 8141SOL     OW25863   6.282   7.727   1.654 -0.7404  0.2550  0.4442
 8141SOL    HW125864   6.228   7.744   1.577 -1.6605 -3.2589  0.1600
 8141SOL    HW225865   6.294   7.813   1.694 -1.2230  2.0514 -2.9046
 8142SOL     OW25866   1.126   1.238   0.991 -0.8960  0.0942  0.1174
 8142SOL    HW125867   1.146   1.255   1.083 -0.5918  1.4771 -0.1758
 8142SOL    HW225868   1.049   1.293   0.973  0.2774  1.4899 -0.9567
 8143SOL     OW25869   1.087   2.667   9.195  0.2264  0.0715 -0.2187
 8143SOL    HW125870   1.009   2.699   9.241 -1.6286  0.6771 -3.4476
 8143SOL    HW225871   1.145   2.743   9.191 -0.0759  0.3280  0.2013
 8144SOL     OW25872   6.230   1.850   7.717 -0.1971  0.0511  0.1571
 8144SOL    HW125873   6.205   1.888   7.801  0.9215 -0.4829  0.7514
 8144SOL    HW225874   6.249   1.926   7.661 -3.5172  0.5336 -0.5268
 8145SOL     OW25875   3.214   7.660   2.515 -0.0133 -0.6138  0.0670
 8145SOL    HW125876   3.173   7.690   2.596 -0.4757  2.1331 -1.0686
 8145SOL    HW225877   3.149   7.602   2.474 -0.3969 -0.7944  0.9231
 8146SOL     OW25878   2.930   3.662   9.216  0.2721  0.8538 -0.3029
 8146SOL    HW125879   2.958   3.631   9.302  0.7429  1.3504 -0.2674
 8146SOL    HW225880   2.913   3.755   9.229 -0.2634  0.8001 -0.6077
 8147SOL     OW25881   2.547   6.131  11.550  0.1697  0.0567 -0.6415
 8147SOL    HW125882   2.590   6.216  11.566  1.0941 -0.5052 -0.0313
 8147SOL    HW225883   2.463   6.154  11.510 -0.4898  1.3674  1.3331
 8148SOL     OW25884   5.774   4.294   9.876  0.2056  0.2353 -0.0316
 8148SOL    HW125885   5.824   4.245   9.942 -0.2567  0.6009  0.5952
 8148SOL    HW225886   5.741   4.227   9.817 -0.8860 -0.2890  1.1284
 8149SOL     OW25887   0.082   7.944   0.284 -0.6146 -0.0983 -0.0936
 8149SOL    HW125888   0.004   7.925   0.231 -0.4167 -1.6324  0.0957
 8149SOL    HW225889   0.154   7.909   0.233 -0.0867  0.9389 -0.0735
 8150SOL     OW25890   4.832   1.248   9.124  0.5501  0.2493  0.8326
 8150SOL    HW125891   4.899   1.290   9.178  0.4856 -2.6531  3.4371
 8150SOL    HW225892   4.749   1.283   9.157  0.5981  1.0513  0.1532
 8151SOL     OW25893   5.403   4.875  10.978 -0.1351  0.6133  0.0864
 8151SOL    HW125894   5.399   4.968  10.956 -0.5798  0.4977 -0.3361
 8151SOL    HW225895   5.496   4.856  10.987 -0.0809  1.4296  1.6132
 8152SOL     OW25896   7.304   7.379   2.968 -0.1203  0.4616 -0.0800
 8152SOL    HW125897   7.390   7.420   2.977  0.5590 -0.7828 -0.7623
 8152SOL    HW225898   7.247   7.433   3.023  0.8992  1.8227 -0.2821
 8153SOL     OW25899   5.450   1.583   4.980  0.6273 -0.0404 -0.3026
 8153SOL    HW125900   5.428   1.495   5.012  2.4503 -0.7388 -0.8744
 8153SOL    HW225901   5.439   1.640   5.056  0.2887 -0.8913  0.3025
 8154SOL     OW25902   0.071   7.236   9.848  0.3772 -0.3542 -0.4067
 8154SOL    HW125903   0.024   7.250   9.765  0.0746 -2.9707 -0.7460
 8154SOL    HW225904   0.039   7.306   9.905 -3.1538 -1.3189 -0.9853
 8155SOL     OW25905   6.154   1.607   2.859  0.4924 -0.0431 -0.6658
 8155SOL    HW125906   6.212   1.596   2.784 -0.0479 -0.2201 -1.0610
 8155SOL    HW225907   6.192   1.552   2.927  0.8327 -0.0922 -0.8922
 8156SOL     OW25908   6.853   7.967  10.632 -0.6439  0.2828  0.2622
 8156SOL    HW125909   6.849   7.962  10.727  0.2082  1.5936  0.3989
 8156SOL    HW225910   6.947   7.967  10.612 -0.8175 -0.3844 -0.6139
 8157SOL     OW25911   5.309   6.015   6.458  0.7369  0.0319 -0.8722
 8157SOL    HW125912   5.341   6.067   6.532  0.5917 -0.3688 -0.5246
 8157SOL    HW225913   5.270   5.938   6.498  0.0324  0.1428 -1.3345
 8158SOL     OW25914   2.395   0.955   4.072 -0.6141 -0.2777  0.1117
 8158SOL    HW125915   2.321   0.991   4.024 -0.9505  1.1466  1.5767
 8158SOL    HW225916   2.471   1.005   4.041 -0.2196 -1.7568 -1.4104
 8159SOL     OW25917   2.544   1.804   8.920  0.1152 -0.5190  0.2843
 8159SOL    HW125918   2.544   1.871   8.989  3.2891 -0.5943  0.5074
 8159SOL    HW225919   2.507   1.727   8.962 -0.5953  0.1999  1.0191
 8160SOL     OW25920   0.227   5.175  10.849  0.3463  0.0924 -0.3995
 8160SOL    HW125921   0.179   5.092  10.846 -2.6452  1.5838  1.3894
 8160SOL    HW225922   0.191   5.226  10.777  0.6572  0.5701 -0.2206
 8161SOL     OW25923   0.130   2.139   3.255 -0.0319  0.2320 -0.0035
 8161SOL    HW125924   0.080   2.161   3.334 -0.1554 -2.1460  0.6830
 8161SOL    HW225925   0.176   2.059   3.279  0.5058 -0.1395 -2.1286
 8162SOL     OW25926   0.448   5.512   1.056  0.3563 -0.7514  0.3433
 8162SOL    HW125927   0.483   5.507   1.145  1.8407 -1.3644 -0.2296
 8162SOL    HW225928   0.426   5.421   1.034 -1.4716 -0.4025  0.6100
 8163SOL     OW25929   6.675   2.338   6.312  0.1675 -0.1558  0.0914
 8163SOL    HW125930   6.615   2.289   6.367 -1.2186  0.6113 -0.6646
 8163SOL    HW225931   6.708   2.275   6.248  0.6589 -0.7150  0.8821
 8164SOL     OW25932   5.409   5.420   1.937 -0.4735 -0.1986  0.1412
 8164SOL    HW125933   5.334   5.363   1.951 -0.4260 -0.4568 -0.6212
 8164SOL    HW225934   5.484   5.368   1.964 -0.3025 -0.9879 -1.7287
 8165SOL     OW25935   1.229   1.742   2.697  0.3934 -0.2438  0.4573
 8165SOL    HW125936   1.200   1.710   2.611  0.5500 -0.3589  0.4452
 8165SOL    HW225937   1.207   1.671   2.758 -1.7813  0.7524  0.8987
 8166SOL     OW25938   4.468   1.376  12.180 -0.3461  0.2654  0.3108
 8166SOL    HW125939   4.386   1.422  12.199 -1.2927 -1.2725  0.0799
 8166SOL    HW225940   4.441   1.298  12.132  1.2264 -0.4606  0.5660
 8167SOL     OW25941   4.465   4.969   9.196  0.1114 -0.3133 -0.1451
 8167SOL    HW125942   4.483   4.875   9.197 -0.4474 -0.4235  0.0317
 8167SOL    HW225943   4.403   4.982   9.267  2.0611  0.6067  1.4806
 8168SOL     OW25944   4.103   3.801   7.434  0.3481  0.3771  0.3552
 8168SOL    HW125945   4.084   3.859   7.508  1.4702 -1.6075  2.3333
 8168SOL    HW225946   4.061   3.718   7.458 -1.1322  0.2523 -2.3212
 8169SOL     OW25947   7.193   0.685   7.530 -0.2807  0.3284  0.6983
 8169SOL    HW125948   7.253   0.672   7.604  2.0237  0.8999 -0.9525
 8169SOL    HW225949   7.180   0.597   7.495  1.5402  0.4010 -0.2906
 8170SOL     OW25950   7.377   7.082   5.012 -0.1610 -0.3015  0.6890
 8170SOL    HW125951   7.320   7.066   5.088 -1.1048  0.1478  0.1050
 8170SOL    HW225952   7.376   6.999   4.964 -0.2970 -0.3102  0.7039
 8171SOL     OW25953   1.801   5.219  11.472  0.8853  0.3655 -0.1542
 8171SOL    HW125954   1.713   5.219  11.509  1.1148 -1.2181  0.4804
 8171SOL    HW225955   1.835   5.307  11.489 -0.1499  0.6278  0.6250
 8172SOL     OW25956   3.930   5.325   2.858 -0.2646 -0.3284 -0.0130
 8172SOL    HW125957   3.915   5.279   2.775 -1.4882 -1.1933  0.6526
 8172SOL    HW225958   3.851   5.377   2.870 -0.0930 -0.2125  0.6205
 8173SOL     OW25959   5.075   6.157   9.066 -0.1311 -0.0539 -0.0800
 8173SOL    HW125960   5.120   6.079   9.099 -1.0595 -1.2768 -1.5710
 8173SOL    HW225961   5.092   6.156   8.972 -1.8436  0.3975 -0.4191
 8174SOL     OW25962   0.144   4.159  11.816 -0.2969 -0.1674 -0.1139
 8174SOL    HW125963   0.098   4.076  11.807 -1.5929  0.5399 -0.4597
 8174SOL    HW225964   0.191   4.152  11.899 -1.7964 -0.6195  0.7450
 8175SOL     OW25965   7.018   0.252   7.605 -0.2983  0.6045  0.5291
 8175SOL    HW125966   7.040   0.207   7.686  0.1836  1.6066  0.9819
 8175SOL    HW225967   6.934   0.294   7.622 -0.1712  0.8611  0.5279
 8176SOL     OW25968   0.259   1.993   5.469 -0.2157 -0.3834  0.1561
 8176SOL    HW125969   0.340   1.961   5.429 -0.8028 -2.5017  0.5442
 8176SOL    HW225970   0.285   2.075   5.513  1.6988 -0.9792  0.2296
 8177SOL     OW25971   2.766   2.298  10.097  0.3710  0.6656 -0.0902
 8177SOL    HW125972   2.854   2.310  10.062  1.0791  1.0472  1.6884
 8177SOL    HW225973   2.709   2.340  10.033  1.2856 -0.9319 -2.0548
 8178SOL     OW25974   1.746   3.600   1.310  0.0798  0.3799  0.1755
 8178SOL    HW125975   1.701   3.643   1.238 -0.6768 -2.1136 -0.9386
 8178SOL    HW225976   1.774   3.672   1.368 -0.8334  2.3168 -1.6808
 8179SOL     OW25977   4.343   6.857  12.070 -0.0487  0.0541  0.2754
 8179SOL    HW125978   4.270   6.853  12.132 -0.9062 -1.5125 -0.7691
 8179SOL    HW225979   4.376   6.768  12.066 -1.0388 -0.2870 -2.6223
 8180SOL     OW25980   2.069   4.693   7.151  0.3012 -0.4083  0.4665
 8180SOL    HW125981   2.102   4.613   7.110 -0.7561 -0.4483 -0.3330
 8180SOL    HW225982   2.030   4.742   7.079 -0.9003 -0.1195  1.2894
 8181SOL     OW25983   6.264   2.371   8.206  0.3014 -0.1727  0.1448
 8181SOL    HW125984   6.179   2.363   8.248  0.2055  1.0423  0.2224
 8181SOL    HW225985   6.246   2.412   8.122  0.6289 -1.5349 -0.6190
 8182SOL     OW25986   1.934   5.709   6.874  0.4378 -0.1270 -0.1944
 8182SOL    HW125987   2.021   5.743   6.897 -0.4078  1.5582  0.6993
 8182SOL    HW225988   1.889   5.701   6.958 -0.5500 -0.1997 -0.7190
 8183SOL     OW25989   0.851   4.473   5.261 -0.2699  0.1442  0.1868
 8183SOL    HW125990   0.895   4.533   5.201 -0.7468  1.7154  1.3102
 8183SOL    HW225991   0.864   4.513   5.347  0.6456 -2.1870  1.1846
 8184SOL     OW25992   5.415   5.509   5.048 -0.4353 -0.6068  0.5296
 8184SOL    HW125993   5.490   5.554   5.086 -1.3255  1.5517 -0.1475
 8184SOL    HW225994   5.436   5.502   4.955 -0.5760 -1.0460  0.5307
 8185SOL     OW25995   3.440   7.085   8.846  0.3862  0.1856  0.5376
 8185SOL    HW125996   3.497   7.012   8.823 -0.0083  0.2927 -0.8516
 8185SOL    HW225997   3.500   7.153   8.877  0.8915 -0.1821  0.3762
 8186SOL     OW25998   5.506   2.914  12.242 -0.1980 -0.2157  0.1128
 8186SOL    HW125999   5.436   2.864  12.199  0.1663  0.8842 -1.8897
 8186SOL    HW226000   5.518   2.870  12.327 -2.8045 -0.8697  0.2372
 8187SOL     OW26001   3.216   3.360   1.143  1.0001 -0.1453 -0.5789
 8187SOL    HW126002   3.265   3.339   1.223  0.6687  0.5045 -0.1953
 8187SOL    HW226003   3.282   3.364   1.074  1.7113  1.8949  0.1332
 8188SOL     OW26004   6.195   4.303  11.132  0.5009  0.7351 -0.0744
 8188SOL    HW126005   6.109   4.339  11.109  0.1530  0.2538  0.4450
 8188SOL    HW226006   6.252   4.330  11.060 -0.4682 -0.3872 -1.3133
 8189SOL     OW26007   3.152   0.204   3.143  0.0335 -0.5308 -0.2885
 8189SOL    HW126008   3.193   0.236   3.223 -0.4060 -1.0580  0.1545
 8189SOL    HW226009   3.094   0.275   3.116 -0.4629 -0.6862  0.3417
 8190SOL     OW26010   5.107   7.767   6.257  0.0389  0.2754 -0.5115
 8190SOL    HW126011   5.022   7.724   6.246  0.0680 -0.7200  2.3169
 8190SOL    HW226012   5.144   7.727   6.335  2.8175  1.2249 -1.2157
 8191SOL     OW26013   5.241   6.964  10.447 -0.3803  0.2822  0.5977
 8191SOL    HW126014   5.327   6.994  10.418 -0.0618  0.0176  1.2331
 8191SOL    HW226015   5.259   6.917  10.528 -1.0894 -0.0485  0.5695
 8192SOL     OW26016   0.213   3.153  11.569  0.1056  0.2493  0.1059
 8192SOL    HW126017   0.304   3.126  11.588  0.1381 -2.0510 -2.6406
 8192SOL    HW226018   0.220   3.209  11.492 -0.7787  0.1660 -0.0447
 8193SOL     OW26019   5.690   1.836  12.107 -0.3237 -0.1948 -0.2090
 8193SOL    HW126020   5.725   1.789  12.183 -1.1319  1.6961  1.4190
 8193SOL    HW226021   5.768   1.863  12.058  0.3588  0.4595  1.1719
 8194SOL     OW26022   4.924   2.728   5.306 -0.2351 -0.0270  0.4399
 8194SOL    HW126023   5.005   2.698   5.265 -1.2504 -0.7642 -1.1519
 8194SOL    HW226024   4.944   2.816   5.338  1.1921 -0.2157  0.1202
 8195SOL     OW26025   1.770   1.120   0.265  0.2588  0.9928  0.0220
 8195SOL    HW126026   1.792   1.139   0.356  1.0351  0.5750 -0.0634
 8195SOL    HW226027   1.851   1.138   0.217  0.4202 -0.5274 -0.3327
 8196SOL     OW26028   6.628   6.417   7.089  0.2383  0.8007  0.4069
 8196SOL    HW126029   6.551   6.369   7.060  1.2797 -0.0396 -1.0998
 8196SOL    HW226030   6.610   6.439   7.180 -0.7913 -1.4167  0.7991
 8197SOL     OW26031   2.151   4.114   7.324 -0.3755 -0.0909 -0.0284
 8197SOL    HW126032   2.113   4.180   7.382  0.2792  2.5059 -2.3596
 8197SOL    HW226033   2.153   4.034   7.377 -0.8194  1.8042  3.0987
 8198SOL     OW26034   5.407   4.036   6.149  0.1515  0.6593  0.8826
 8198SOL    HW126035   5.324   4.081   6.164 -0.4021  0.1378 -0.4571
 8198SOL    HW226036   5.408   4.018   6.054  0.8919 -1.0570  1.1762
 8199SOL     OW26037   6.980   2.911   8.094 -0.3233  0.0706  0.0862
 8199SOL    HW126038   6.970   2.868   8.009 -0.1306 -1.2658  0.7164
 8199SOL    HW226039   6.985   3.004   8.073  0.8745 -0.2968 -1.4795
 8200SOL     OW26040   0.387   5.975  11.373  0.6021 -0.6138  0.1942
 8200SOL    HW126041   0.481   5.990  11.366  0.4768 -0.1163 -0.4887
 8200SOL    HW226042   0.347   6.061  11.359  0.0848 -0.5878  1.7079
 8201SOL     OW26043   0.941   0.424   1.969  0.0152 -0.1530 -0.1801
 8201SOL    HW126044   0.859   0.384   1.937 -0.4167 -1.7529  2.6319
 8201SOL    HW226045   1.006   0.355   1.960  0.9103  0.7922 -1.4470
 8202SOL     OW26046   1.728   0.539   8.379  0.4364  0.2151 -0.4752
 8202SOL    HW126047   1.690   0.561   8.294  0.3975 -1.0309 -0.8043
 8202SOL    HW226048   1.702   0.448   8.394 -0.0469  0.5871  1.1443
 8203SOL     OW26049   3.351   7.244   8.249 -0.9628 -0.0200 -0.1111
 8203SOL    HW126050   3.432   7.196   8.235 -0.4746  1.0847 -1.3582
 8203SOL    HW226051   3.374   7.336   8.232 -2.2359  0.4413  0.5044
 8204SOL     OW26052   0.883   4.535   3.415 -0.1586  0.0195  0.4385
 8204SOL    HW126053   0.792   4.527   3.385 -0.9627 -0.6353  2.8703
 8204SOL    HW226054   0.935   4.496   3.344 -1.9881 -2.0894  0.1372
 8205SOL     OW26055   1.257   1.449   9.638  0.7159 -0.0048  0.2437
 8205SOL    HW126056   1.250   1.479   9.729 -3.0053 -1.9903  0.8484
 8205SOL    HW226057   1.208   1.514   9.588  1.8226  0.5027 -0.2044
 8206SOL     OW26058   1.185   4.705   8.949  0.0619 -0.3546 -0.1056
 8206SOL    HW126059   1.255   4.687   9.012  0.4015  0.7700 -0.1465
 8206SOL    HW226060   1.207   4.650   8.873  1.4153  0.6493 -0.4772
 8207SOL     OW26061   0.578   3.847   2.326 -0.0444 -0.1677  0.2436
 8207SOL    HW126062   0.669   3.855   2.298  0.1826 -2.0913  0.2769
 8207SOL    HW226063   0.578   3.772   2.386 -1.8100 -0.8375 -0.5262
 8208SOL     OW26064   3.502   1.769   8.812  0.3350  0.1505 -0.1111
 8208SOL    HW126065   3.491   1.692   8.756 -1.7851  0.1403  0.2362
 8208SOL    HW226066   3.462   1.745   8.895 -2.4840  2.2781 -0.6843
 8209SOL     OW26067   5.125   0.306  11.876  0.4037 -0.3038 -0.4438
 8209SOL    HW126068   5.093   0.256  11.801 -0.7839 -0.5135  0.1707
 8209SOL    HW226069   5.072   0.274  11.950 -0.4089  1.8262 -0.0278
 8210SOL     OW26070   2.488   0.343   4.537 -0.0134 -0.0045 -0.8444
 8210SOL    HW126071   2.407   0.348   4.488 -0.2619  0.4896 -0.3874
 8210SOL    HW226072   2.464   0.368   4.627  0.1550 -2.1218 -0.1346
 8211SOL     OW26073   6.858   7.923   5.710  0.0364 -0.1194  0.4931
 8211SOL    HW126074   6.944   7.925   5.668 -0.0844  1.4346  0.2351
 8211SOL    HW226075   6.800   7.883   5.645  1.2098 -5.3562  2.2194
 8212SOL     OW26076   0.874   6.621   0.023 -0.2416  0.4596 -0.2866
 8212SOL    HW126077   0.824   6.670   0.088 -0.4689  1.0514 -0.8943
 8212SOL    HW226078   0.966   6.637   0.046 -0.3214  0.7480 -0.1677
 8213SOL     OW26079   0.989   6.812   7.059 -0.0416 -0.0984 -0.2543
 8213SOL    HW126080   1.002   6.904   7.080  1.5243 -0.3099 -0.1785
 8213SOL    HW226081   0.905   6.790   7.099 -0.0570  1.0950  0.4191
 8214SOL     OW26082   6.260   7.400   0.430  0.3389  0.7219  0.3900
 8214SOL    HW126083   6.190   7.466   0.428 -0.3602  0.0420 -2.4601
 8214SOL    HW226084   6.219   7.321   0.463  0.2310  0.7950  0.4281
 8215SOL     OW26085   6.225   1.023  10.152  0.1440  0.2959  0.4625
 8215SOL    HW126086   6.131   1.025  10.169  0.1439 -3.4740  1.9041
 8215SOL    HW226087   6.232   1.002  10.059 -0.4322  0.5876  0.3505
 8216SOL     OW26088   0.075   6.483   8.802 -0.0928 -0.4411 -0.0290
 8216SOL    HW126089   0.135   6.481   8.727 -1.0955  1.3701 -0.9313
 8216SOL    HW226090   0.070   6.392   8.831  2.1643 -0.8295 -0.6411
 8217SOL     OW26091   5.850   4.732   9.049 -0.1996  0.4847 -0.1932
 8217SOL    HW126092   5.840   4.643   9.016 -1.4892  0.3123  0.6078
 8217SOL    HW226093   5.842   4.724   9.144  0.5705  1.3458 -0.0382
 8218SOL     OW26094   7.490   2.477   1.052  0.3587 -0.0857  0.3709
 8218SOL    HW126095   7.414   2.525   1.019  1.2625  1.1409 -0.0267
 8218SOL    HW226096   7.466   2.452   1.141 -0.3600  0.6251  0.3887
 8219SOL     OW26097   3.571   0.628   2.282 -0.7469 -0.1288 -0.3837
 8219SOL    HW126098   3.522   0.670   2.211 -0.0715 -0.1447 -0.8678
 8219SOL    HW226099   3.549   0.535   2.275 -2.2680  0.1165  0.7073
 8220SOL     OW26100   0.814   6.198   7.032  0.5600  0.0545  0.0571
 8220SOL    HW126101   0.860   6.170   7.112  0.2193 -4.1191 -1.0151
 8220SOL    HW226102   0.884   6.211   6.968  0.6046 -0.4554  0.0007
 8221SOL     OW26103   3.620   4.866   1.299 -0.7737  0.1464  0.0010
 8221SOL    HW126104   3.593   4.885   1.389 -1.1381  2.6913 -0.5717
 8221SOL    HW226105   3.618   4.951   1.255 -2.5972 -1.2585 -2.9679
 8222SOL     OW26106   7.245   1.895   8.152  0.3311 -0.2897 -0.0340
 8222SOL    HW126107   7.149   1.899   8.157  0.2847  1.0099 -1.3756
 8222SOL    HW226108   7.266   1.924   8.064  2.0237  0.7167  0.6470
 8223SOL     OW26109   2.356   4.269   6.415  0.0884  0.2903 -0.0185
 8223SOL    HW126110   2.271   4.225   6.419 -0.1922  0.8938  1.3110
 8223SOL    HW226111   2.349   4.330   6.342 -0.1108 -0.6528 -0.8087
 8224SOL     OW26112   7.080   6.193   8.635  0.0837  0.3394  0.2904
 8224SOL    HW126113   7.115   6.197   8.724  1.2181 -1.7729 -0.0040
 8224SOL    HW226114   7.157   6.205   8.579 -0.6322  1.7689 -0.4517
 8225SOL     OW26115   4.592   0.969   5.176  0.1243  0.6211 -0.3762
 8225SOL    HW126116   4.635   1.014   5.104 -0.9282 -1.1401 -2.2438
 8225SOL    HW226117   4.512   1.019   5.192 -1.4079 -0.7974 -2.9335
 8226SOL     OW26118   0.143   5.467  11.773  0.4535 -0.2695  0.1050
 8226SOL    HW126119   0.102   5.425  11.697 -0.5142  0.5080  0.1704
 8226SOL    HW226120   0.234   5.481  11.746  0.1541 -0.1019 -0.8762
 8227SOL     OW26121   7.788   0.487   5.416 -0.0250  0.8770  0.6134
 8227SOL    HW126122   7.854   0.507   5.349 -0.3113 -2.0435 -0.7255
 8227SOL    HW226123   7.839   0.459   5.492  0.3782 -0.6913 -0.1816
 8228SOL     OW26124   2.545   3.933   6.491 -0.4755  0.3691  0.6311
 8228SOL    HW126125   2.597   3.861   6.527 -0.1054 -0.5448 -1.5694
 8228SOL    HW226126   2.487   3.892   6.428 -2.0479  1.7296  1.1167
 8229SOL     OW26127   6.164   4.356   4.020  0.3967 -0.1012 -0.1470
 8229SOL    HW126128   6.229   4.422   3.995 -1.9174  2.2494 -0.4355
 8229SOL    HW226129   6.193   4.325   4.105  0.9656  2.2879  0.6136
 8230SOL     OW26130   2.670   5.893  11.999 -0.1533 -0.0414 -0.1021
 8230SOL    HW126131   2.761   5.896  12.029 -0.0880  0.8716 -0.3705
 8230SOL    HW226132   2.647   5.984  11.981 -0.2787 -0.4723 -2.5625
 8231SOL     OW26133   6.559   5.595   9.194  0.0394 -0.0724  0.7684
 8231SOL    HW126134   6.597   5.561   9.112 -0.4150  0.2057  0.4412
 8231SOL    HW226135   6.630   5.643   9.235  0.4628 -0.7525  0.8527
 8232SOL     OW26136   7.904   0.997   1.030  0.3956  0.1902 -0.0539
 8232SOL    HW126137   7.939   0.954   1.107  1.5255  0.5716 -0.3422
 8232SOL    HW226138   7.911   1.091   1.050  0.4323  0.2849 -0.5022
 8233SOL     OW26139   1.211   6.247   9.393  0.0909 -0.3213 -0.3344
 8233SOL    HW126140   1.121   6.235   9.363  0.2010  0.4285 -0.9971
 8233SOL    HW226141   1.222   6.182   9.463 -1.0592 -0.2089 -0.0269
 8234SOL     OW26142   6.562   3.346   7.169  0.6036  0.3210  0.3564
 8234SOL    HW126143   6.468   3.329   7.163  0.5737  0.8961 -1.0756
 8234SOL    HW226144   6.580   3.343   7.263 -0.6881 -0.5847  0.6086
 8235SOL     OW26145   1.114   1.929   8.257 -0.3375 -0.0037 -0.5656
 8235SOL    HW126146   1.079   1.954   8.343 -1.1463 -2.1883 -0.2103
 8235SOL    HW226147   1.204   1.961   8.258 -0.8703  1.5741  0.3737
 8236SOL     OW26148   0.825   7.756  11.268 -0.4740 -0.4861  0.1335
 8236SOL    HW126149   0.850   7.666  11.288 -0.2829 -0.5128 -0.2138
 8236SOL    HW226150   0.796   7.792  11.352  1.9537 -0.0442  0.8565
 8237SOL     OW26151   5.952   6.864   3.000 -0.0920  0.1822  0.0524
 8237SOL    HW126152   6.000   6.934   3.045  2.0698 -1.3736  0.3357
 8237SOL    HW226153   6.021   6.808   2.963 -1.7520  0.0660 -3.1723
 8238SOL     OW26154   6.962   4.973   8.496  0.0301  0.0584  0.7211
 8238SOL    HW126155   7.031   4.959   8.432 -1.2820 -0.7901 -0.5548
 8238SOL    HW226156   6.988   5.054   8.541  1.4172  0.2093 -0.2642
 8239SOL     OW26157   7.212   7.113   0.502 -0.3031 -0.0031  0.4077
 8239SOL    HW126158   7.245   7.202   0.513 -2.1695  0.8871 -0.7097
 8239SOL    HW226159   7.175   7.090   0.587  0.2465  0.2508  0.7199
 8240SOL     OW26160   6.863   4.916   4.270 -0.8764  0.3827 -0.3861
 8240SOL    HW126161   6.928   4.933   4.338  0.4031 -2.3259 -0.7965
 8240SOL    HW226162   6.880   4.982   4.203 -1.1737  2.1351  1.1888
 8241SOL     OW26163   5.979   3.119   2.931 -0.1304 -0.0954 -0.5267
 8241SOL    HW126164   5.898   3.129   2.982  0.4860  1.4999  0.2167
 8241SOL    HW226165   5.951   3.075   2.851 -1.7004  0.1991 -0.1774
 8242SOL     OW26166   5.260   0.800   8.259 -0.0206  0.2541 -0.0794
 8242SOL    HW126167   5.183   0.823   8.311 -0.4693 -0.1843 -0.5547
 8242SOL    HW226168   5.300   0.728   8.307  0.6281  1.0887  0.6728
 8243SOL     OW26169   2.612   0.001   3.815 -0.2094 -0.5527 -0.0243
 8243SOL    HW126170   2.579   0.060   3.746  1.7297 -0.4228 -0.8947
 8243SOL    HW226171   2.577   0.037   3.896 -0.3068  0.9189 -0.6901
 8244SOL     OW26172   3.724   5.494   1.432 -0.1002 -0.1973 -0.2741
 8244SOL    HW126173   3.703   5.573   1.382 -0.5370 -0.4797 -0.5502
 8244SOL    HW226174   3.639   5.456   1.453  0.1064 -1.1854 -1.1124
 8245SOL     OW26175   2.699   4.857  12.031 -1.2306  0.3460 -0.3335
 8245SOL    HW126176   2.753   4.928  12.065 -0.5311  0.8271 -2.3170
 8245SOL    HW226177   2.623   4.901  11.992 -0.6816  0.0750 -1.7799
 8246SOL     OW26178   1.723   3.605  12.221 -0.4915  0.0600  0.4778
 8246SOL    HW126179   1.643   3.636  12.178 -0.4632  0.6437  0.8360
 8246SOL    HW226180   1.699   3.599  12.313 -0.6649 -1.5433  0.3557
 8247SOL     OW26181   4.338   6.908   6.553  0.3882  0.3597 -0.0017
 8247SOL    HW126182   4.294   6.831   6.518  1.1291 -0.5886  1.0705
 8247SOL    HW226183   4.403   6.931   6.487 -1.5679  1.7237 -1.5605
 8248SOL     OW26184   3.407   0.737  12.052 -0.1691 -0.2999 -0.7083
 8248SOL    HW126185   3.436   0.651  12.082 -1.4239 -1.1113 -1.7227
 8248SOL    HW226186   3.315   0.725  12.027 -1.4078  2.0619  2.0454
 8249SOL     OW26187   0.552   6.081   6.007  0.0299  0.3578 -0.0559
 8249SOL    HW126188   0.568   6.143   6.078  2.1230  1.6216 -1.5284
 8249SOL    HW226189   0.586   5.997   6.040 -0.4099  0.5613  0.9594
 8250SOL     OW26190   7.954   7.477   7.110 -0.0501  0.0360 -0.5021
 8250SOL    HW126191   7.958   7.573   7.110  1.2056  0.0033 -0.4787
 8250SOL    HW226192   8.009   7.451   7.184  0.1144 -0.7132 -0.8811
 8251SOL     OW26193   3.951   1.595  11.262 -0.4310 -0.5420  0.1402
 8251SOL    HW126194   3.911   1.534  11.325 -1.6213  1.8736  1.8937
 8251SOL    HW226195   4.015   1.644  11.314 -1.6341  1.7006 -0.3662
 8252SOL     OW26196   1.533   1.722   4.907 -0.4420 -0.1692 -0.4857
 8252SOL    HW126197   1.448   1.713   4.951  0.4628 -0.9690  1.1863
 8252SOL    HW226198   1.549   1.816   4.905 -0.0494 -0.1245  1.9386
 8253SOL     OW26199   5.130   4.836  12.174  0.0948  0.8752 -0.7855
 8253SOL    HW126200   5.078   4.911  12.203  1.5128  2.0668 -1.2655
 8253SOL    HW226201   5.100   4.819  12.085 -1.1572 -0.0131 -0.2348
 8254SOL     OW26202   7.944   6.283  11.309  0.1748  0.4002 -0.2823
 8254SOL    HW126203   7.859   6.271  11.352  0.0903  1.5575 -0.0858
 8254SOL    HW226204   7.979   6.195  11.300 -0.8194 -0.0541  0.1060
 8255SOL     OW26205   3.446   7.561   6.060  0.1341 -0.2324 -0.1305
 8255SOL    HW126206   3.471   7.472   6.087  3.0027  0.8522  1.1561
 8255SOL    HW226207   3.362   7.549   6.014 -0.5650 -3.3317  1.6489
 8256SOL     OW26208   0.823   0.358   2.473 -0.3890  0.1355  0.3013
 8256SOL    HW126209   0.918   0.366   2.478 -0.1676 -1.1116 -1.1474
 8256SOL    HW226210   0.799   0.414   2.398 -0.6864 -0.2309  0.1221
 8257SOL     OW26211   4.507   2.035   7.577 -0.2675  0.1274 -0.5515
 8257SOL    HW126212   4.436   2.087   7.539  0.0513  1.6046  0.7667
 8257SOL    HW226213   4.567   2.100   7.614  1.7114 -1.0887 -1.4702
 8258SOL     OW26214   2.561   1.831  11.243 -0.4438  0.2596  0.1152
 8258SOL    HW126215   2.631   1.876  11.290 -0.3186  0.9823 -0.7332
 8258SOL    HW226216   2.603   1.753  11.206 -0.3625  0.1031  0.5277
 8259SOL     OW26217   6.253   3.511  11.619 -0.3466 -0.0527 -0.0018
 8259SOL    HW126218   6.178   3.477  11.571  1.4294 -2.8378 -1.0698
 8259SOL    HW226219   6.297   3.433  11.653  1.1542  1.5677  2.0506
 8260SOL     OW26220   1.182   4.921   7.664  0.2914 -0.6032 -0.0865
 8260SOL    HW126221   1.267   4.911   7.620 -0.7228  0.3448 -2.4036
 8260SOL    HW226222   1.131   4.846   7.633 -0.8337  0.7224 -1.6164
 8261SOL     OW26223   0.661   4.565   3.223  0.0070  0.0766  0.7135
 8261SOL    HW126224   0.605   4.487   3.224  1.5432 -1.1087 -0.6937
 8261SOL    HW226225   0.602   4.636   3.198 -0.9601 -1.0848 -0.4593
 8262SOL     OW26226   0.933   3.173   9.728  0.7225 -0.2228  0.5956
 8262SOL    HW126227   0.851   3.206   9.766  1.5233 -0.0337  2.2710
 8262SOL    HW226228   0.941   3.084   9.762 -0.1211 -1.3023 -1.8039
 8263SOL     OW26229   1.917   1.563   5.578 -0.4348 -0.1251 -0.7862
 8263SOL    HW126230   2.005   1.601   5.582  0.1748 -1.5825  0.5577
 8263SOL    HW226231   1.859   1.635   5.601  0.4885  0.5762 -0.5787
 8264SOL     OW26232   2.775   1.557   2.824  0.2160  0.2397 -0.2135
 8264SOL    HW126233   2.711   1.508   2.875  0.6110 -0.2690 -0.1982
 8264SOL    HW226234   2.843   1.494   2.803  0.6813  0.7535 -0.2924
 8265SOL     OW26235   2.618   3.874   8.293 -0.0879  0.4819  0.6188
 8265SOL    HW126236   2.658   3.868   8.380 -1.6554  0.2928  1.3634
 8265SOL    HW226237   2.526   3.895   8.310 -0.3181  0.9644 -1.0242
 8266SOL     OW26238   5.231   2.119   4.517 -0.1944  0.0284  0.0416
 8266SOL    HW126239   5.138   2.107   4.498 -0.4035 -0.4739  1.2566
 8266SOL    HW226240   5.234   2.189   4.582  0.2014 -0.4619  0.5675
 8267SOL     OW26241   2.328   1.789   1.275  0.1781  0.4101  0.3548
 8267SOL    HW126242   2.380   1.858   1.315  2.5161 -0.9394 -0.1824
 8267SOL    HW226243   2.318   1.816   1.184 -0.6339  0.9666  0.5992
 8268SOL     OW26244   7.929   5.182  10.035 -0.1647  0.1609 -0.1068
 8268SOL    HW126245   7.872   5.160  10.109  0.6163  1.0032  0.7721
 8268SOL    HW226246   7.909   5.116   9.968  0.3280 -1.7030  1.4926
 8269SOL     OW26247   2.357   0.151   0.199 -0.3035 -0.0243  0.7640
 8269SOL    HW126248   2.319   0.113   0.120  0.3234  0.2993  0.2966
 8269SOL    HW226249   2.299   0.123   0.270 -0.8515 -0.3468  0.1950
 8270SOL     OW26250   3.444   0.592   5.836 -0.2248  0.3118  0.1617
 8270SOL    HW126251   3.504   0.518   5.854 -0.5219  0.1632  0.5470
 8270SOL    HW226252   3.502   0.664   5.811  0.0480 -0.1654 -0.6111
 8271SOL     OW26253   3.378   5.035   7.028  0.8764 -0.0724  0.6067
 8271SOL    HW126254   3.390   5.085   6.948  1.5448 -0.1610  0.6415
 8271SOL    HW226255   3.445   4.966   7.024  0.6133 -0.3612  1.0193
 8272SOL     OW26256   6.012   1.121   0.007  0.2938 -0.5053 -0.6681
 8272SOL    HW126257   6.008   1.057  -0.063  0.6867 -0.4102 -0.7772
 8272SOL    HW226258   5.951   1.088   0.073 -1.1818  0.1370 -1.6474
 8273SOL     OW26259   7.288   6.837   6.743  0.0207  0.4513  0.1942
 8273SOL    HW126260   7.358   6.897   6.716  0.1123  0.9339  1.4810
 8273SOL    HW226261   7.296   6.763   6.682  1.1891  0.8281 -0.1362
 8274SOL     OW26262   2.893   1.535   8.729 -0.5459  0.2633 -0.5457
 8274SOL    HW126263   2.848   1.478   8.792  1.0713 -0.3678  0.0891
 8274SOL    HW226264   2.853   1.621   8.741  0.0993  0.2947  1.8012
 8275SOL     OW26265   3.913   5.098   8.080  0.3812 -0.2911  0.3043
 8275SOL    HW126266   3.939   5.164   8.145 -1.1710  1.1054 -0.4092
 8275SOL    HW226267   3.995   5.056   8.053  1.1455 -0.2755  2.4708
 8276SOL     OW26268   6.559   2.497  10.354  0.1548 -0.0515 -0.5236
 8276SOL    HW126269   6.516   2.524  10.273  1.2436  0.4421 -0.9486
 8276SOL    HW226270   6.502   2.428  10.389  0.2140 -1.0396 -2.2553
 8277SOL     OW26271   5.239   2.274  10.688 -0.4612 -0.3068  0.0388
 8277SOL    HW126272   5.265   2.206  10.751  0.5341 -0.2753 -0.3112
 8277SOL    HW226273   5.198   2.342  10.742 -1.6915 -1.2867  0.3599
 8278SOL     OW26274   5.030   3.068   5.139 -0.2176  0.0494 -0.0799
 8278SOL    HW126275   4.958   3.046   5.080 -1.7048  0.8893  1.3014
 8278SOL    HW226276   5.012   3.017   5.218 -0.2792  1.5066  0.8891
 8279SOL     OW26277   2.198   5.892   4.821 -0.4428 -0.1337  0.4144
 8279SOL    HW126278   2.148   5.830   4.874 -1.6432 -0.4926 -1.0870
 8279SOL    HW226279   2.140   5.968   4.811  1.2383  1.6114  2.7647
 8280SOL     OW26280   1.117   7.197   2.034  0.4984  0.2337  0.0901
 8280SOL    HW126281   1.185   7.200   1.967  0.4055 -0.9433 -0.0891
 8280SOL    HW226282   1.108   7.104   2.054 -0.2760  0.4745  0.9174
 8281SOL     OW26283   6.818   1.214   7.261 -0.2992 -0.1845 -0.0181
 8281SOL    HW126284   6.879   1.142   7.244 -0.9049 -0.5392 -0.7841
 8281SOL    HW226285   6.749   1.174   7.314  0.2329  0.2688  1.0362
 8282SOL     OW26286   7.743   3.695   1.328 -0.0037 -0.0700 -0.3201
 8282SOL    HW126287   7.742   3.759   1.399 -1.7920 -1.8829  1.4401
 8282SOL    HW226288   7.728   3.747   1.248  0.0938  1.8290  0.8378
 8283SOL     OW26289   0.396   0.013   9.696  0.3552  0.7163  0.1534
 8283SOL    HW126290   0.434   0.101   9.699  2.8835 -0.2751 -0.3369
 8283SOL    HW226291   0.352   0.008   9.612  1.8140  0.9412 -0.6537
 8284SOL     OW26292   5.508   0.506   1.252 -0.5555 -0.0449 -0.9259
 8284SOL    HW126293   5.546   0.510   1.164 -1.3142  1.3779 -1.2184
 8284SOL    HW226294   5.580   0.525   1.311  0.1401 -1.7556 -1.1457
 8285SOL     OW26295   2.927   4.813   6.024 -0.3506  0.3160  0.0090
 8285SOL    HW126296   2.957   4.891   5.978 -1.7590  0.1520 -1.2800
 8285SOL    HW226297   2.904   4.751   5.954 -1.1656 -0.4955  0.9606
 8286SOL     OW26298   6.622   4.481   5.220  0.4905  0.3633 -0.3825
 8286SOL    HW126299   6.717   4.486   5.223  0.4308  1.7592  0.3222
 8286SOL    HW226300   6.593   4.535   5.294 -0.8422 -2.1736  1.0497
 8287SOL     OW26301   1.843   1.672   3.238  0.1928  0.5553  0.2628
 8287SOL    HW126302   1.799   1.587   3.247  0.3398  0.5362  0.8845
 8287SOL    HW226303   1.787   1.722   3.178 -0.9245  0.6692  1.3360
 8288SOL     OW26304   0.439   1.675  11.473  0.8562 -0.1968 -0.1260
 8288SOL    HW126305   0.359   1.637  11.510  1.2282 -1.4744 -0.5669
 8288SOL    HW226306   0.426   1.769  11.481 -0.3027 -0.3862  0.6321
 8289SOL     OW26307   7.886   2.697   0.210 -0.3705  0.0809 -0.2129
 8289SOL    HW126308   7.956   2.721   0.149 -0.4116 -0.9763 -0.6856
 8289SOL    HW226309   7.931   2.672   0.290 -0.3470  2.7082  0.7163
 8290SOL     OW26310   3.770   4.693   0.180  0.2873 -0.0999 -0.0753
 8290SOL    HW126311   3.702   4.641   0.138  0.4706  0.4227 -1.0637
 8290SOL    HW226312   3.830   4.717   0.109 -0.6500  2.8069 -0.0431
 8291SOL     OW26313   6.829   3.554   2.678  0.3661 -0.1498  0.2180
 8291SOL    HW126314   6.895   3.494   2.645  1.2822  0.6747  0.5029
 8291SOL    HW226315   6.746   3.508   2.664  1.0110 -1.3478  0.1736
 8292SOL     OW26316   3.859   3.964   4.118 -0.0202 -0.2073 -0.1066
 8292SOL    HW126317   3.932   3.904   4.133 -1.6828 -2.0761  0.9138
 8292SOL    HW226318   3.801   3.917   4.058 -1.6647  0.0635  1.1970
 8293SOL     OW26319   0.060   1.128   2.690  0.3634  0.7281 -0.2285
 8293SOL    HW126320   0.086   1.097   2.603  0.1911  0.2045 -0.0949
 8293SOL    HW226321   0.067   1.051   2.746 -2.2120  0.3571 -0.3223
 8294SOL     OW26322   7.945   0.867   1.281  0.0035  0.7634  0.0140
 8294SOL    HW126323   8.038   0.878   1.264 -0.0188  0.1024 -0.5962
 8294SOL    HW226324   7.938   0.777   1.315 -0.2636  1.2300  1.2740
 8295SOL     OW26325   4.025   4.259   0.360  0.2988  0.4289  0.3939
 8295SOL    HW126326   4.106   4.299   0.328 -0.3065  0.0803 -1.7249
 8295SOL    HW226327   4.051   4.171   0.386  0.7652  0.6447  0.6843
 8296SOL     OW26328   3.782   0.617  11.111 -0.1033  0.4184 -0.5758
 8296SOL    HW126329   3.768   0.523  11.098  0.1340  0.0338  1.5284
 8296SOL    HW226330   3.698   0.656  11.086 -0.9167 -0.5979  0.4028
 8297SOL     OW26331   1.665   1.999   7.039  0.1364  0.4482 -0.3802
 8297SOL    HW126332   1.746   1.998   6.989  0.2697  1.3961 -0.2030
 8297SOL    HW226333   1.627   1.912   7.025  0.8715  0.2098 -0.9611
 8298SOL     OW26334   0.540   7.070   6.327  0.6321 -0.0820  0.4263
 8298SOL    HW126335   0.508   7.135   6.264  1.9747 -0.5190 -0.7551
 8298SOL    HW226336   0.481   6.995   6.317  0.6947 -0.0565 -0.1429
 8299SOL     OW26337   2.108   3.825   1.726 -0.0387  0.0938  0.0738
 8299SOL    HW126338   2.028   3.878   1.717 -0.0068 -0.0038 -0.8039
 8299SOL    HW226339   2.165   3.854   1.655 -0.1123 -1.2792 -0.5813
 8300SOL     OW26340   5.067   1.949  12.467 -0.0003 -0.1787 -0.3542
 8300SOL    HW126341   5.094   1.939  12.376 -0.1764 -1.8403 -0.2635
 8300SOL    HW226342   4.991   1.891  12.475 -1.9634  2.2952  0.0870
 8301SOL     OW26343   3.970   3.039   9.129  0.1052 -0.3785 -0.3876
 8301SOL    HW126344   3.993   2.967   9.069  2.1653  0.9087 -1.2782
 8301SOL    HW226345   4.051   3.055   9.178 -1.3598 -0.9896  2.3922
 8302SOL     OW26346   7.663   3.663  11.795  0.1449 -0.1878  0.0379
 8302SOL    HW126347   7.641   3.756  11.799 -0.6090 -0.3963  1.9921
 8302SOL    HW226348   7.659   3.633  11.886  2.2998 -1.7181 -0.3004
 8303SOL     OW26349   6.459   7.250   3.041  0.0034 -0.8893 -0.0707
 8303SOL    HW126350   6.394   7.183   3.062 -1.2752  0.3648  0.1417
 8303SOL    HW226351   6.481   7.288   3.126 -1.7912  1.1573 -0.4458
 8304SOL     OW26352   6.713   5.813  11.900 -0.6265  0.0373  0.2877
 8304SOL    HW126353   6.718   5.908  11.892  2.0627 -0.1616 -2.1641
 8304SOL    HW226354   6.790   5.789  11.951 -1.0152 -0.8569  0.4704
 8305SOL     OW26355   2.413   2.118   8.803 -0.4717 -0.4121  0.0784
 8305SOL    HW126356   2.348   2.109   8.732  0.4181 -1.0002 -0.6962
 8305SOL    HW226357   2.394   2.046   8.862 -0.6658 -0.4522 -0.0333
 8306SOL     OW26358   6.707   5.947  11.052 -0.7788 -0.3825  0.5141
 8306SOL    HW126359   6.745   5.888  11.117  0.1235  0.3304  0.6583
 8306SOL    HW226360   6.679   5.890  10.981  1.5903 -0.8842 -0.1142
 8307SOL     OW26361   4.576   2.066   5.912  0.2285  0.0078 -0.1388
 8307SOL    HW126362   4.646   2.131   5.904  0.4523 -0.4378 -2.3648
 8307SOL    HW226363   4.619   1.982   5.896 -0.2501 -0.6316  1.7174
 8308SOL     OW26364   7.474   6.086   6.793 -0.0177 -0.7369 -0.0962
 8308SOL    HW126365   7.505   6.167   6.834  0.9445 -0.8838 -0.5108
 8308SOL    HW226366   7.488   6.100   6.699  0.6378 -1.5781 -0.1338
 8309SOL     OW26367   2.888   6.141   2.825 -0.2492  0.6633 -0.4722
 8309SOL    HW126368   2.963   6.119   2.769 -0.3891 -0.9418 -0.0748
 8309SOL    HW226369   2.912   6.107   2.911 -1.2565  0.4946 -0.2462
 8310SOL     OW26370   0.525   1.352   9.109 -0.2509  0.0870 -0.8768
 8310SOL    HW126371   0.608   1.305   9.113 -0.3996 -0.1488 -0.5617
 8310SOL    HW226372   0.461   1.285   9.084 -0.6303 -0.0946  0.5328
 8311SOL     OW26373   2.926   7.272   8.088 -0.3310  0.5395  0.4534
 8311SOL    HW126374   2.959   7.356   8.056  1.4141 -0.0895  0.5045
 8311SOL    HW226375   2.918   7.218   8.009 -1.8297  0.8524  0.3705
 8312SOL     OW26376   4.637   3.460   5.171 -1.0240  0.3215 -0.2899
 8312SOL    HW126377   4.626   3.421   5.258 -1.1946 -0.6403 -0.7220
 8312SOL    HW226378   4.696   3.534   5.184 -0.3786 -0.3170  0.5131
 8313SOL     OW26379   0.506   1.214   1.937  0.3355 -0.5351 -0.3050
 8313SOL    HW126380   0.516   1.290   1.994  1.5549 -1.2239  0.4533
 8313SOL    HW226381   0.447   1.244   1.867  0.8039  1.1036 -0.0495
 8314SOL     OW26382   7.946   2.146   1.660  0.5061  0.3475 -0.5357
 8314SOL    HW126383   7.958   2.066   1.608  1.5948  0.9705 -1.2906
 8314SOL    HW226384   8.006   2.136   1.734 -1.7295 -0.9666  1.2062
 8315SOL     OW26385   2.961   3.122   0.359 -0.6554 -0.5261 -0.1704
 8315SOL    HW126386   2.921   3.171   0.288  1.1702 -1.0418 -1.6267
 8315SOL    HW226387   2.892   3.114   0.425 -2.4122 -0.0513 -1.8680
 8316SOL     OW26388   4.291   6.283   3.172  0.6022 -0.0060  1.0249
 8316SOL    HW126389   4.342   6.215   3.216 -1.1684 -1.8166  0.4363
 8316SOL    HW226390   4.310   6.270   3.079  1.8199  1.7059  0.9831
 8317SOL     OW26391   3.596   1.879   1.949 -0.4200  0.0051 -0.2579
 8317SOL    HW126392   3.683   1.872   1.988 -0.7656  0.4130  0.6106
 8317SOL    HW226393   3.552   1.798   1.975 -0.6363  0.2575  0.1697
 8318SOL     OW26394   2.575   3.291   3.019  0.1823  0.2070  0.1482
 8318SOL    HW126395   2.490   3.271   2.979 -0.0748  1.3727  0.0620
 8318SOL    HW226396   2.563   3.378   3.057  1.3322  0.3659  0.1784
 8319SOL     OW26397   3.906   0.660   4.771 -0.2919 -0.1773 -0.0555
 8319SOL    HW126398   3.973   0.603   4.733  0.8493 -0.9195  2.7932
 8319SOL    HW226399   3.954   0.740   4.796 -0.9152  0.1530  0.0975
 8320SOL     OW26400   1.524   5.032   0.716  0.7262  0.1399  0.6782
 8320SOL    HW126401   1.477   5.078   0.785  0.9529 -0.2931  1.1246
 8320SOL    HW226402   1.578   5.099   0.674  0.6041  0.3984  0.9339
 8321SOL     OW26403   6.067   1.055   3.714 -0.3222  0.6845  0.3020
 8321SOL    HW126404   5.991   1.076   3.660 -1.1446  0.9622  1.5362
 8321SOL    HW226405   6.036   0.987   3.774  0.7061  0.0453  0.1463
 8322SOL     OW26406   0.321   7.959   4.042 -0.2766  0.8108  0.1182
 8322SOL    HW126407   0.405   7.916   4.059 -0.5896 -0.0371 -0.4257
 8322SOL    HW226408   0.345   8.048   4.015  0.5920 -0.0509 -2.1962
 8323SOL     OW26409   7.417   1.941   0.723  0.7063 -0.2540 -0.0804
 8323SOL    HW126410   7.409   1.882   0.798  2.5766  0.6535  0.9023
 8323SOL    HW226411   7.409   2.029   0.761  3.2350  0.2833 -0.6310
 8324SOL     OW26412   3.451   3.321   4.817 -0.5805 -0.0450 -0.3217
 8324SOL    HW126413   3.468   3.330   4.910 -2.0699 -2.0605  0.2243
 8324SOL    HW226414   3.373   3.374   4.801 -0.2272  0.4358 -0.4730
 8325SOL     OW26415   0.354   7.774   9.237  1.3039  0.1813  0.4541
 8325SOL    HW126416   0.370   7.692   9.191 -1.7255 -0.5375  0.4907
 8325SOL    HW226417   0.315   7.748   9.320  1.1376  1.6286  0.8537
 8326SOL     OW26418   1.955   4.940  11.898  0.0999 -0.1228  0.7567
 8326SOL    HW126419   1.896   4.937  11.823 -0.2714  2.6055  0.8336
 8326SOL    HW226420   2.041   4.922  11.862 -0.1404  0.7050 -0.2710
 8327SOL     OW26421   4.390   7.947   5.949 -0.6424 -0.5205  0.3326
 8327SOL    HW126422   4.405   7.855   5.927 -0.1390 -0.1535 -0.9417
 8327SOL    HW226423   4.356   7.985   5.868 -0.8402  0.4183  0.8488
 8328SOL     OW26424   2.952   3.623   4.393  0.1100 -0.7893  0.4047
 8328SOL    HW126425   2.949   3.533   4.361 -1.9931 -0.1846 -1.3440
 8328SOL    HW226426   2.930   3.677   4.317 -2.0454  0.9545  2.1142
 8329SOL     OW26427   5.677   4.391   3.823  0.0918  0.3418 -0.8142
 8329SOL    HW126428   5.592   4.350   3.807 -0.1335 -0.1258  1.2308
 8329SOL    HW226429   5.657   4.474   3.865  0.6178 -0.1101  0.3923
 8330SOL     OW26430   7.571   2.402   2.671 -0.0667 -0.1224  0.0110
 8330SOL    HW126431   7.512   2.461   2.624 -1.7476 -0.7698  1.2206
 8330SOL    HW226432   7.651   2.453   2.685 -0.7623  1.1794 -0.6470
 8331SOL     OW26433   1.101   6.185   3.927 -0.3902  0.3257  0.0595
 8331SOL    HW126434   1.071   6.247   3.993 -1.1703  0.3801 -0.3336
 8331SOL    HW226435   1.034   6.117   3.925 -1.1594  1.0582 -1.6685
 8332SOL     OW26436   5.814   4.916  10.525 -0.1955  0.3366 -0.3820
 8332SOL    HW126437   5.781   4.850  10.464 -0.0774 -1.4595  1.3487
 8332SOL    HW226438   5.903   4.886  10.545 -0.0395  1.1911  0.2239
 8333SOL     OW26439   0.204   3.804   2.268  0.1362  0.3195  0.3157
 8333SOL    HW126440   0.211   3.718   2.225 -0.2933  1.2349 -1.7194
 8333SOL    HW226441   0.275   3.855   2.230  0.9011  0.6560  2.1209
 8334SOL     OW26442   7.363   3.490  11.390 -0.1433 -0.6148  0.0641
 8334SOL    HW126443   7.391   3.571  11.433 -1.0001  0.8514 -1.9955
 8334SOL    HW226444   7.283   3.465  11.436 -0.4632  0.3252  0.0354
 8335SOL     OW26445   7.933   6.456  10.699  0.0838  0.4715 -0.1152
 8335SOL    HW126446   7.937   6.526  10.764 -2.0250 -0.5570  1.2416
 8335SOL    HW226447   8.019   6.456  10.658  0.4352  3.2570  0.4282
 8336SOL     OW26448   7.750   5.045   4.557  0.2461  0.6039 -0.0014
 8336SOL    HW126449   7.818   5.053   4.490  4.0934  0.9660  3.5202
 8336SOL    HW226450   7.761   4.956   4.592 -4.0083 -0.8997 -1.8068
 8337SOL     OW26451   7.712   5.320  11.071 -0.0597  0.1314  0.3737
 8337SOL    HW126452   7.689   5.320  10.978 -1.1725  0.0104  0.6289
 8337SOL    HW226453   7.732   5.229  11.092  1.4912  0.3536 -0.0267
 8338SOL     OW26454   2.042   2.229   0.495  0.3677 -0.4208  0.1930
 8338SOL    HW126455   1.996   2.150   0.465 -1.1717  0.3337  0.4461
 8338SOL    HW226456   2.038   2.288   0.420  2.3393 -0.8810 -0.3193
 8339SOL     OW26457   6.568   1.322   9.320  0.2552  0.1520  0.2823
 8339SOL    HW126458   6.576   1.415   9.340 -0.7100  0.7161 -1.7601
 8339SOL    HW226459   6.614   1.311   9.237 -2.5778 -0.4006 -1.3707
 8340SOL     OW26460   1.824   6.558   8.070 -0.1694 -0.3427  0.4963
 8340SOL    HW126461   1.831   6.653   8.063  0.4291 -0.4288 -0.1809
 8340SOL    HW226462   1.751   6.535   8.012  0.7684 -0.4444 -0.6880
 8341SOL     OW26463   0.504   3.981   0.365  0.2659 -0.1157 -0.0077
 8341SOL    HW126464   0.439   4.014   0.303  0.7068  0.4491 -0.1786
 8341SOL    HW226465   0.569   4.051   0.371  2.0081 -1.5083 -1.5060
 8342SOL     OW26466   7.409   0.105   4.239  0.0936 -0.1548  0.0349
 8342SOL    HW126467   7.327   0.095   4.287 -1.0160 -0.6029 -1.8828
 8342SOL    HW226468   7.453   0.020   4.248 -0.2322 -0.3243  0.0257
 8343SOL     OW26469   2.100   7.375   9.736 -0.0121  0.2319 -0.3806
 8343SOL    HW126470   2.170   7.399   9.797 -0.2898  1.8261 -0.6500
 8343SOL    HW226471   2.062   7.295   9.773  0.0983  0.9272  1.2905
 8344SOL     OW26472   1.689   6.757   0.973  0.3739  0.2572  0.2767
 8344SOL    HW126473   1.672   6.795   0.887  0.3697 -0.2153  0.0666
 8344SOL    HW226474   1.784   6.761   0.982  0.4359 -0.3514 -0.0596
 8345SOL     OW26475   3.356   4.855   0.180  0.4853  0.0572 -0.0596
 8345SOL    HW126476   3.265   4.865   0.208 -0.0302 -2.3594 -0.6648
 8345SOL    HW226477   3.395   4.942   0.193 -2.3406  1.6552 -1.5109
 8346SOL     OW26478   7.976   7.421  10.366 -0.3198 -0.1496 -0.2648
 8346SOL    HW126479   7.912   7.359  10.400 -0.3518  0.7309  1.3820
 8346SOL    HW226480   8.060   7.388  10.398 -0.3997  0.9639  1.1661
 8347SOL     OW26481   5.208   7.784   9.989 -0.3949 -0.0399  0.4871
 8347SOL    HW126482   5.187   7.765  10.081  0.6611  1.7185  1.1288
 8347SOL    HW226483   5.148   7.855   9.965 -0.5208 -0.3524 -0.1284
 8348SOL     OW26484   1.437   2.522   0.779 -0.1884  0.5428  0.2609
 8348SOL    HW126485   1.453   2.428   0.784 -0.2803  0.5551  0.8736
 8348SOL    HW226486   1.504   2.561   0.835  0.0209  0.8618 -0.2115
 8349SOL     OW26487   2.391   2.490   2.854  0.1636 -0.1262  0.3524
 8349SOL    HW126488   2.483   2.503   2.875  0.3018 -0.0667 -0.2664
 8349SOL    HW226489   2.344   2.510   2.935  0.6319  0.6500  0.4400
 8350SOL     OW26490   0.698   3.195   8.602 -0.5371 -0.2845  0.1731
 8350SOL    HW126491   0.749   3.199   8.521 -3.7373  0.8019 -1.9831
 8350SOL    HW226492   0.661   3.106   8.603 -1.3019  0.0154 -0.1642
 8351SOL     OW26493   6.538   3.072   0.074  0.2849  0.1072  0.2487
 8351SOL    HW126494   6.463   3.036   0.026 -0.6467  0.7157  1.1956
 8351SOL    HW226495   6.550   3.011   0.147 -0.4698  0.9779  1.1232
 8352SOL     OW26496   4.286   0.447   2.582 -0.2932 -0.3381 -0.3038
 8352SOL    HW126497   4.235   0.506   2.526 -0.7629 -1.0875 -0.6918
 8352SOL    HW226498   4.339   0.505   2.636 -2.1768  0.5418  0.7230
 8353SOL     OW26499   6.972   6.405   2.615  0.3034 -0.4177  0.1352
 8353SOL    HW126500   6.901   6.399   2.680  0.4919 -1.0604  0.2891
 8353SOL    HW226501   7.044   6.356   2.655  0.4285 -0.7996 -0.5488
 8354SOL     OW26502   1.714   5.198   1.083 -0.0455 -1.1033 -0.5010
 8354SOL    HW126503   1.656   5.265   1.048  0.9164  0.9261  1.5456
 8354SOL    HW226504   1.783   5.189   1.017 -1.3812 -1.8532 -1.8620
 8355SOL     OW26505   3.136   2.684   1.487  0.2348 -0.7667 -0.5681
 8355SOL    HW126506   3.137   2.715   1.578  1.0497 -3.2987  0.3551
 8355SOL    HW226507   3.062   2.731   1.447 -0.3595  0.1535  1.4757
 8356SOL     OW26508   2.985   4.949  10.176  0.2513  0.3287  0.0878
 8356SOL    HW126509   3.009   4.970  10.266 -2.7007 -0.4161  1.1694
 8356SOL    HW226510   3.054   4.890  10.146  0.7796 -0.2255  2.2053
 8357SOL     OW26511   1.384   0.040  11.811  0.5886  0.2407  0.1728
 8357SOL    HW126512   1.351  -0.007  11.734  1.1485  1.6223 -0.9452
 8357SOL    HW226513   1.478   0.048  11.796  1.0000 -0.8946  1.8214
 8358SOL     OW26514   2.387   3.426   8.609 -0.0512 -0.9231 -0.0298
 8358SOL    HW126515   2.351   3.441   8.696 -1.0034  2.5859 -0.8517
 8358SOL    HW226516   2.352   3.341   8.582  0.6635 -2.3354  3.1057
 8359SOL     OW26517   4.460   1.751   5.239  0.0686  0.6512 -0.1722
 8359SOL    HW126518   4.549   1.723   5.262 -0.0849 -0.9458 -1.2946
 8359SOL    HW226519   4.429   1.683   5.178 -1.5006  1.7768 -0.6962
 8360SOL     OW26520   5.340   3.858   7.594 -0.7903 -0.1795 -0.2911
 8360SOL    HW126521   5.251   3.875   7.624 -1.0299  0.2204 -1.1910
 8360SOL    HW226522   5.369   3.941   7.555 -0.4960 -0.6719 -1.1472
 8361SOL     OW26523   4.858   4.377   5.497 -0.0694 -0.1500  0.4900
 8361SOL    HW126524   4.826   4.407   5.412 -0.3344  2.1610  1.3288
 8361SOL    HW226525   4.779   4.366   5.550  0.1172 -1.2298  0.5648
 8362SOL     OW26526   2.419   1.135   7.057 -0.0898 -0.0058  0.0932
 8362SOL    HW126527   2.368   1.056   7.071  0.8206 -0.6389 -0.0842
 8362SOL    HW226528   2.424   1.176   7.144  0.2117 -0.6265  0.3740
 8363SOL     OW26529   6.956   3.442   5.394  0.3981 -0.6081 -0.3190
 8363SOL    HW126530   6.981   3.411   5.481 -0.1865 -2.2030 -0.6797
 8363SOL    HW226531   6.922   3.531   5.408 -0.4300 -1.1327  1.2053
 8364SOL     OW26532   3.158   3.568   1.920  0.5082 -0.3719  0.0178
 8364SOL    HW126533   3.151   3.620   1.840  0.5696 -0.2981  0.0595
 8364SOL    HW226534   3.149   3.632   1.991 -1.7922 -0.7108  0.1049
 8365SOL     OW26535   7.717   6.484  12.350 -0.2083 -0.2851  0.0514
 8365SOL    HW126536   7.647   6.531  12.306 -0.6730 -0.3603  0.6991
 8365SOL    HW226537   7.748   6.420  12.286 -0.6121 -0.1376 -0.2907
 8366SOL     OW26538   6.507   0.191   7.084 -0.1501  0.1812  0.0679
 8366SOL    HW126539   6.493   0.260   7.149 -1.3267 -0.7724  0.8711
 8366SOL    HW226540   6.518   0.238   7.001 -1.3074  1.3333  0.5314
 8367SOL     OW26541   6.359   6.116  10.959 -0.6139  0.3590 -0.6206
 8367SOL    HW126542   6.342   6.141  11.050 -1.3170  0.9316 -0.9025
 8367SOL    HW226543   6.282   6.066  10.933 -0.3147  0.0073 -0.8331
 8368SOL     OW26544   6.496   6.681   5.093  0.2104 -0.1336 -0.2984
 8368SOL    HW126545   6.420   6.686   5.035 -0.5983  3.8480  0.8223
 8368SOL    HW226546   6.571   6.696   5.036 -0.1493 -0.5307 -0.8943
 8369SOL     OW26547   0.841   4.142   1.734  0.0515 -0.2254 -0.3151
 8369SOL    HW126548   0.829   4.096   1.817 -0.2589 -2.4325 -1.5159
 8369SOL    HW226549   0.763   4.197   1.726  1.2342  2.0354  1.9622
 8370SOL     OW26550   6.931   6.792   4.953  0.0031  0.2460  0.0250
 8370SOL    HW126551   6.974   6.707   4.943  1.0058  0.7680 -0.2072
 8370SOL    HW226552   6.839   6.774   4.934  0.2744 -0.7005 -0.4764
 8371SOL     OW26553   0.768   5.594  10.217  0.0996 -0.0108 -0.4616
 8371SOL    HW126554   0.850   5.546  10.229  0.4754  0.1519 -2.1616
 8371SOL    HW226555   0.762   5.650  10.294  2.3528  1.0214 -0.9560
 8372SOL     OW26556   7.119   1.790   3.872  0.2377 -0.0608 -0.1022
 8372SOL    HW126557   7.166   1.847   3.932 -0.5827  0.7110 -0.1829
 8372SOL    HW226558   7.146   1.701   3.897 -0.1724  0.2286  1.4803
 8373SOL     OW26559   1.227   2.996   3.877  0.2017  0.2495 -0.2864
 8373SOL    HW126560   1.322   2.987   3.887  0.0176 -0.7414  0.8164
 8373SOL    HW226561   1.216   3.034   3.790  1.6435  1.5372  0.0493
 8374SOL     OW26562   7.407   5.378   3.856  0.1824 -0.1890  0.3105
 8374SOL    HW126563   7.393   5.316   3.785  0.4983  0.1999 -0.0977
 8374SOL    HW226564   7.351   5.453   3.835  1.0262  0.3557 -0.0704
 8375SOL     OW26565   6.854   6.339   1.417  0.0106  0.6092 -0.2926
 8375SOL    HW126566   6.773   6.321   1.465  0.8472  0.7493  1.2571
 8375SOL    HW226567   6.840   6.299   1.331 -1.6669  0.5808 -0.0442
 8376SOL     OW26568   6.569   1.492   9.934  0.1706  0.3523  0.8662
 8376SOL    HW126569   6.590   1.400   9.948  0.4563  0.3857  0.6748
 8376SOL    HW226570   6.474   1.496   9.932  0.1609 -0.0740 -0.0022
 8377SOL     OW26571   5.181   6.904   6.147 -0.4538  0.2236  0.7299
 8377SOL    HW126572   5.189   6.834   6.081 -1.8401  0.4377  0.2897
 8377SOL    HW226573   5.271   6.923   6.173  0.1882  0.4380 -1.4387
 8378SOL     OW26574   7.169   2.843   1.569 -0.2937 -0.0606  0.2796
 8378SOL    HW126575   7.092   2.887   1.606 -0.5893 -0.1474 -0.2192
 8378SOL    HW226576   7.133   2.787   1.500  0.3825  1.2924 -1.2219
 8379SOL     OW26577   6.749   2.433   2.227 -0.4307  0.0375 -0.2456
 8379SOL    HW126578   6.660   2.441   2.192 -1.6521 -1.5539  2.1497
 8379SOL    HW226579   6.761   2.512   2.280 -0.1672  0.5303 -1.0289
 8380SOL     OW26580   6.043   0.937   5.496 -0.1020  0.2235  0.2761
 8380SOL    HW126581   6.034   1.028   5.467  0.3955 -0.2680 -1.5763
 8380SOL    HW226582   6.133   0.931   5.529 -0.1332  0.3938  0.3943
 8381SOL     OW26583   4.549   6.523  10.329  0.1766 -0.5878 -0.4775
 8381SOL    HW126584   4.484   6.517  10.259 -1.2443  0.4745  0.7163
 8381SOL    HW226585   4.558   6.433  10.360 -2.1389 -0.5237  0.5597
 8382SOL     OW26586   6.432   6.084   2.731 -0.1904 -0.0475  0.1509
 8382SOL    HW126587   6.344   6.069   2.764  0.0406 -0.5026  0.5694
 8382SOL    HW226588   6.461   6.164   2.775  0.8527 -1.6832  2.6225
 8383SOL     OW26589   1.531   6.918   4.386  0.6633  0.3020 -0.7306
 8383SOL    HW126590   1.624   6.905   4.406  0.6326  1.0892 -0.0093
 8383SOL    HW226591   1.501   6.981   4.452 -0.8316 -1.2818  0.2020
 8384SOL     OW26592   1.979   4.489  11.360  0.3910  0.2874  0.0970
 8384SOL    HW126593   2.065   4.502  11.400  0.0885  0.3135  0.7549
 8384SOL    HW226594   1.950   4.405  11.395 -0.1571  0.6156  0.4331
 8385SOL     OW26595   6.896   4.202   0.628  0.9286  0.7626  0.0939
 8385SOL    HW126596   6.964   4.245   0.576  1.0855  0.8608  0.3852
 8385SOL    HW226597   6.943   4.164   0.703  0.5138  1.7017  0.8347
 8386SOL     OW26598   5.807   6.940   9.342  0.2782  0.6801 -0.1002
 8386SOL    HW126599   5.861   6.931   9.263 -1.2696  2.0160 -1.3699
 8386SOL    HW226600   5.837   6.869   9.399  1.2573 -0.5043 -1.9765
 8387SOL     OW26601   0.953   1.632   5.635 -0.6763  0.0678  0.4389
 8387SOL    HW126602   0.977   1.724   5.648 -1.1637  0.1185  1.0102
 8387SOL    HW226603   0.860   1.628   5.654 -0.7623 -0.4585 -0.0676
 8388SOL     OW26604   5.203   6.031   7.933 -0.5982 -0.4312 -0.6574
 8388SOL    HW126605   5.134   6.095   7.950 -1.5588 -1.3152 -1.1126
 8388SOL    HW226606   5.178   5.989   7.851 -2.0328 -3.9075  1.3318
 8389SOL     OW26607   6.629   0.469   1.820 -0.4231 -0.3032  0.1569
 8389SOL    HW126608   6.587   0.538   1.871 -0.3475  0.7154 -1.1100
 8389SOL    HW226609   6.598   0.483   1.730  1.1628 -0.6671 -0.4839
 8390SOL     OW26610   0.330   1.523  10.234  0.0127 -0.7062  0.0060
 8390SOL    HW126611   0.363   1.593  10.290 -3.0758  0.5973  0.4458
 8390SOL    HW226612   0.237   1.544  10.222 -0.5550 -3.5665 -1.6863
 8391SOL     OW26613   1.600   7.830  11.903 -0.3766  0.0291 -0.0466
 8391SOL    HW126614   1.594   7.748  11.855 -0.9764  0.8744 -1.4865
 8391SOL    HW226615   1.520   7.833  11.956 -0.8245  0.0973 -0.7111
 8392SOL     OW26616   2.123   1.577   1.811 -0.2792  0.2254  0.1283
 8392SOL    HW126617   2.109   1.671   1.824  0.6118  0.4646 -0.5380
 8392SOL    HW226618   2.035   1.541   1.803 -0.6217  1.1862 -0.7658
 8393SOL     OW26619   4.445   1.520   6.531  0.4317 -0.1132  0.4066
 8393SOL    HW126620   4.438   1.509   6.626 -0.0293  0.4197  0.4436
 8393SOL    HW226621   4.376   1.583   6.509  0.5670 -0.1926 -0.2758
 8394SOL     OW26622   4.602   0.666   0.042  0.2314 -0.1494  0.1662
 8394SOL    HW126623   4.688   0.700   0.068 -0.3402  2.6713 -1.2077
 8394SOL    HW226624   4.616   0.630  -0.045  0.1691 -0.4110  0.2642
 8395SOL     OW26625   1.883   6.747   1.307 -0.0200 -0.5741  0.8924
 8395SOL    HW126626   1.912   6.807   1.376 -0.1324 -0.2858  0.6898
 8395SOL    HW226627   1.941   6.765   1.233  0.6172 -1.4310  1.1626
 8396SOL     OW26628   7.743   2.371   5.751 -0.1412 -0.3654  0.8166
 8396SOL    HW126629   7.736   2.413   5.837 -1.3179 -0.1403  0.6260
 8396SOL    HW226630   7.767   2.441   5.692  2.2992 -0.8051  1.1750
 8397SOL     OW26631   4.226   5.072   9.723  0.5138  0.4852  0.0921
 8397SOL    HW126632   4.320   5.088   9.727  0.4175  0.8459  1.4792
 8397SOL    HW226633   4.194   5.132   9.656  1.2637  0.3677 -0.3809
 8398SOL     OW26634   7.025   5.858  11.662 -0.3244  0.9127 -0.9563
 8398SOL    HW126635   7.043   5.845  11.755 -0.7194 -0.1324 -1.0057
 8398SOL    HW226636   6.929   5.854  11.656 -0.4488  3.0142 -1.1461
 8399SOL     OW26637   4.780   4.452   6.027 -0.4805 -0.4907 -0.0478
 8399SOL    HW126638   4.841   4.502   6.082 -0.8131 -1.3541  1.1353
 8399SOL    HW226639   4.802   4.361   6.044  0.3627 -0.8086 -2.4734
 8400SOL     OW26640   6.687   6.769  10.023 -0.0332  0.3552  0.1922
 8400SOL    HW126641   6.604   6.790  10.066  0.7175  1.5279  1.1266
 8400SOL    HW226642   6.751   6.828  10.064  0.9730  0.5862 -1.6073
 8401SOL     OW26643   5.944   5.493   6.427  0.1963 -0.0905  0.7104
 8401SOL    HW126644   5.980   5.407   6.448 -0.3042 -0.0800  1.6852
 8401SOL    HW226645   5.961   5.504   6.333  2.5030 -0.1712  1.0582
 8402SOL     OW26646   3.749   4.088   0.734  0.1153 -0.3558 -0.2405
 8402SOL    HW126647   3.686   4.151   0.768 -0.6969  0.1740 -2.5199
 8402SOL    HW226648   3.827   4.141   0.714  0.4550 -0.5937  0.4327
 8403SOL     OW26649   1.873   1.795   9.286 -0.0148  0.4762  0.6265
 8403SOL    HW126650   1.899   1.742   9.211  0.5290 -1.7907  2.2886
 8403SOL    HW226651   1.785   1.763   9.309  0.2196  0.4150  1.5059
 8404SOL     OW26652   7.885   0.140  10.518  0.1559  0.2299 -0.0477
 8404SOL    HW126653   7.902   0.183  10.434 -1.9301  1.9501  0.3321
 8404SOL    HW226654   7.965   0.153  10.568  1.7608 -1.5245 -1.9593
 8405SOL     OW26655   4.801   4.213   9.418  1.0396 -0.2457  0.0959
 8405SOL    HW126656   4.886   4.185   9.386  1.4138  1.7489 -0.8341
 8405SOL    HW226657   4.755   4.245   9.340 -0.0108  0.0294  0.7982
 8406SOL     OW26658   0.394   3.828   3.572  0.3543  0.0701  0.1861
 8406SOL    HW126659   0.327   3.839   3.505  0.4642 -1.6796 -0.2506
 8406SOL    HW226660   0.370   3.748   3.618  0.3308  1.1804  2.2191
 8407SOL     OW26661   2.346   2.079   8.056 -0.7848  0.2531  0.1582
 8407SOL    HW126662   2.417   2.108   8.113 -0.4086 -0.4081  0.0365
 8407SOL    HW226663   2.352   2.135   7.979  0.9429 -1.1215 -0.7884
 8408SOL     OW26664   5.446   4.655   2.395 -0.1323  0.1702  0.3963
 8408SOL    HW126665   5.391   4.614   2.329 -1.9265  0.8875  1.3703
 8408SOL    HW226666   5.516   4.592   2.411 -0.1941 -0.4263 -1.4490
 8409SOL     OW26667   1.754   3.827   1.867 -0.4426 -0.0188  0.6520
 8409SOL    HW126668   1.773   3.738   1.898  1.1804  0.5258  1.3136
 8409SOL    HW226669   1.666   3.821   1.831 -0.6849 -1.7091  1.4252
 8410SOL     OW26670   1.272   0.120  12.147  0.2378 -0.3517 -0.2114
 8410SOL    HW126671   1.261   0.179  12.072 -0.3995 -1.5568 -1.1070
 8410SOL    HW226672   1.185   0.119  12.188  0.8090  0.9929  1.1128
 8411SOL     OW26673   2.774   5.428   5.746  0.0349 -0.1552  0.1983
 8411SOL    HW126674   2.712   5.497   5.767  0.6514  0.2594  0.6917
 8411SOL    HW226675   2.736   5.349   5.785 -0.0850  0.1328  0.6788
 8412SOL     OW26676   7.652   5.784   8.542 -0.7560 -0.0048 -0.2733
 8412SOL    HW126677   7.668   5.690   8.537 -2.0551 -0.1946 -1.6716
 8412SOL    HW226678   7.619   5.799   8.630  0.1282 -0.7314  0.1939
 8413SOL     OW26679   7.440   7.382   8.929 -0.2927  0.0441  0.1179
 8413SOL    HW126680   7.532   7.376   8.954 -0.5235 -0.0833  0.9862
 8413SOL    HW226681   7.438   7.441   8.854  0.5924 -0.6413 -0.4566
 8414SOL     OW26682   1.652   6.788  11.214  0.0682  0.0356 -0.2031
 8414SOL    HW126683   1.705   6.725  11.262  0.4929  1.1177  0.7979
 8414SOL    HW226684   1.570   6.742  11.195  0.9954 -1.3601 -0.9832
 8415SOL     OW26685   3.199   5.435   5.494  0.2931 -0.6203  0.0053
 8415SOL    HW126686   3.279   5.482   5.471  0.1232 -0.3654 -0.0714
 8415SOL    HW226687   3.130   5.501   5.488  0.1167 -0.7674  0.3544
 8416SOL     OW26688   2.397   4.245   3.965 -0.1404  0.5924  0.2828
 8416SOL    HW126689   2.340   4.298   3.909  1.0660  0.8910 -0.7128
 8416SOL    HW226690   2.461   4.307   3.999  1.2055 -0.1423 -0.7896
 8417SOL     OW26691   2.626   3.767   4.809 -0.0058 -0.3064 -0.3790
 8417SOL    HW126692   2.720   3.760   4.825 -0.3569  0.6341  2.7171
 8417SOL    HW226693   2.611   3.861   4.798 -0.6939 -0.3665  0.0107
 8418SOL     OW26694   7.852   2.898   4.857 -0.2747  0.0162  0.0243
 8418SOL    HW126695   7.838   2.951   4.778 -0.7433 -1.6765 -1.0772
 8418SOL    HW226696   7.912   2.829   4.829  1.2461  0.5596  1.7300
 8419SOL     OW26697   7.308   2.788  12.292  0.8032 -0.0436 -0.3044
 8419SOL    HW126698   7.321   2.837  12.374 -4.0347  0.6998  0.3401
 8419SOL    HW226699   7.308   2.696  12.319  0.2545  0.1469  0.3731
 8420SOL     OW26700   5.401   2.606   0.509  0.1842  0.2255  0.5333
 8420SOL    HW126701   5.449   2.541   0.457  1.0729  0.6845  0.7644
 8420SOL    HW226702   5.385   2.563   0.593 -1.4913 -0.6212 -0.1544
 8421SOL     OW26703   0.883   7.013   8.601 -0.0354  0.0782 -0.0058
 8421SOL    HW126704   0.976   6.988   8.601 -0.1516 -0.4076 -0.6755
 8421SOL    HW226705   0.868   7.050   8.687  0.8873  0.5515 -0.0309
 8422SOL     OW26706   0.695   6.559   6.742 -0.2724 -0.2752  0.1451
 8422SOL    HW126707   0.726   6.634   6.793 -0.2691  0.0416 -0.3237
 8422SOL    HW226708   0.610   6.586   6.709 -0.8307 -0.9426  0.9808
 8423SOL     OW26709   6.831   0.562   5.829 -0.3064 -0.1771 -0.4867
 8423SOL    HW126710   6.802   0.651   5.810 -0.1079  0.2046  0.8731
 8423SOL    HW226711   6.750   0.510   5.825 -0.1847 -0.2949 -2.9678
 8424SOL     OW26712   6.995   7.619   4.900 -0.0955 -0.0124 -0.7175
 8424SOL    HW126713   7.005   7.713   4.888  0.9413 -0.1099 -0.7476
 8424SOL    HW226714   7.031   7.602   4.987 -3.0703  0.0100  0.6348
 8425SOL     OW26715   2.424   7.541   8.141 -0.1536  0.0836  0.3175
 8425SOL    HW126716   2.401   7.479   8.211 -0.6557  0.2587  0.3129
 8425SOL    HW226717   2.340   7.579   8.115  0.1040  0.4480  0.0199
 8426SOL     OW26718   3.350   5.550   3.968 -0.2108  0.0728  0.3000
 8426SOL    HW126719   3.308   5.572   4.051  0.2651  0.9085  0.3292
 8426SOL    HW226720   3.280   5.558   3.903 -0.0272  1.9399  0.2781
 8427SOL     OW26721   2.522   4.705   1.951  0.0686  0.1632  0.2618
 8427SOL    HW126722   2.531   4.754   2.033 -2.4142 -0.0659  0.7586
 8427SOL    HW226723   2.428   4.693   1.941  0.4333 -1.9023 -1.3956
 8428SOL     OW26724   6.306   0.204   8.313 -0.2647 -0.1475  0.3049
 8428SOL    HW126725   6.361   0.141   8.266 -0.5297 -0.2378  0.1124
 8428SOL    HW226726   6.227   0.212   8.259 -0.0364  0.7117  0.0857
 8429SOL     OW26727   4.822   1.799   0.606 -0.0571  0.4070 -0.0132
 8429SOL    HW126728   4.859   1.715   0.633  0.6247  0.3630 -1.0278
 8429SOL    HW226729   4.878   1.864   0.647 -0.0279  0.3639  0.0156
 8430SOL     OW26730   5.091   5.292   1.026  0.3564 -0.5609  0.3353
 8430SOL    HW126731   5.018   5.235   1.051 -0.5698  1.1646  1.8384
 8430SOL    HW226732   5.050   5.377   1.008  1.9417  0.3597  0.8618
 8431SOL     OW26733   6.513   6.918   8.996  0.1001 -0.0139 -0.4760
 8431SOL    HW126734   6.477   6.856   8.932  0.3208  1.7352 -2.3806
 8431SOL    HW226735   6.478   7.003   8.969 -0.1805  0.7413  2.0554
 8432SOL     OW26736   5.847   4.837   8.159 -0.1555  0.1761  0.0786
 8432SOL    HW126737   5.870   4.761   8.106  0.5791  0.8421 -0.5745
 8432SOL    HW226738   5.806   4.897   8.097 -1.7635 -0.1189  0.8070
 8433SOL     OW26739   4.910   7.172   1.267 -0.0251  0.4196  0.4137
 8433SOL    HW126740   4.980   7.165   1.203  0.0228  1.1396  0.3878
 8433SOL    HW226741   4.830   7.180   1.215 -0.4747 -2.8812  0.3711
 8434SOL     OW26742   6.743   7.710   9.347 -0.2533  0.1191 -0.2202
 8434SOL    HW126743   6.723   7.709   9.253 -0.3595  0.3294 -0.2014
 8434SOL    HW226744   6.736   7.619   9.374  2.1566 -0.3217 -0.9125
 8435SOL     OW26745   6.844   6.730   8.696  0.1195 -0.3308 -0.2064
 8435SOL    HW126746   6.861   6.645   8.657 -0.3895 -0.4107 -0.2615
 8435SOL    HW226747   6.749   6.740   8.692 -0.1621 -1.0721  2.4824
 8436SOL     OW26748   2.423   6.457  10.260 -0.0650  0.1795  0.2558
 8436SOL    HW126749   2.397   6.368  10.286  1.5107 -0.4078 -0.1182
 8436SOL    HW226750   2.358   6.482  10.195  1.2976 -2.0372 -2.1344
 8437SOL     OW26751   0.981   7.561   2.598  0.3981 -0.3140 -0.3366
 8437SOL    HW126752   1.010   7.649   2.623  0.2719 -0.3904  0.0985
 8437SOL    HW226753   1.043   7.533   2.531 -0.4539  0.7039 -1.5976
 8438SOL     OW26754   5.413   7.780  11.077 -0.1172 -0.4002 -0.2338
 8438SOL    HW126755   5.432   7.718  11.007 -0.9655 -2.1303  0.9766
 8438SOL    HW226756   5.371   7.854  11.033 -1.7223 -1.9437 -1.4787
 8439SOL     OW26757   1.764   7.449  10.193  0.2890  0.2992  0.2073
 8439SOL    HW126758   1.785   7.542  10.187 -0.7518  0.6646  1.6685
 8439SOL    HW226759   1.678   7.440  10.151  1.3638 -0.4544 -1.9992
 8440SOL     OW26760   1.272   2.799   1.207  0.5817 -0.3067 -0.2364
 8440SOL    HW126761   1.236   2.793   1.119 -1.0303 -1.2211  0.4391
 8440SOL    HW226762   1.272   2.709   1.239  0.4015  0.0969  0.9686
 8441SOL     OW26763   3.413   5.021   9.314  0.2631  0.4194 -0.0755
 8441SOL    HW126764   3.432   4.972   9.233  1.7583  1.6069 -0.4913
 8441SOL    HW226765   3.351   4.966   9.361 -1.8280  0.3541 -2.6999
 8442SOL     OW26766   0.061   2.358   0.128  0.5879 -0.2120  0.8313
 8442SOL    HW126767   0.100   2.324   0.208 -1.0636 -0.5344  1.5303
 8442SOL    HW226768   0.091   2.298   0.060 -0.7774 -2.0373  1.7612
 8443SOL     OW26769   1.784   7.248   6.735 -0.4279 -0.1358 -0.0193
 8443SOL    HW126770   1.840   7.312   6.780 -0.0640 -1.2665  1.2153
 8443SOL    HW226771   1.846   7.191   6.688 -0.7148  0.1318 -0.7255
 8444SOL     OW26772   1.181   6.814   3.403 -0.0543  0.0756 -0.7988
 8444SOL    HW126773   1.102   6.862   3.430 -0.8649 -1.4952 -0.2890
 8444SOL    HW226774   1.149   6.744   3.347  1.1411  0.1887 -1.6652
 8445SOL     OW26775   6.508   4.545   8.769  0.4807  0.4816 -0.1983
 8445SOL    HW126776   6.546   4.560   8.855  0.5900  0.1155 -0.1798
 8445SOL    HW226777   6.505   4.632   8.728 -0.4017  0.7951  0.5088
 8446SOL     OW26778   6.924   1.859   1.214 -0.4137 -0.3511 -0.4018
 8446SOL    HW126779   7.016   1.836   1.226  0.1038  0.5963 -2.1862
 8446SOL    HW226780   6.926   1.943   1.168 -2.1752 -0.1777 -0.2409
 8447SOL     OW26781   3.405   6.010  12.240  0.9064  0.3506  0.2074
 8447SOL    HW126782   3.337   5.964  12.291  1.1989  0.1738  0.4410
 8447SOL    HW226783   3.359   6.042  12.163  0.7911 -0.7465 -0.1981
 8448SOL     OW26784   6.740   3.942   8.166  0.1264 -0.3744 -0.4060
 8448SOL    HW126785   6.756   4.010   8.100 -1.5312  0.3417 -0.1412
 8448SOL    HW226786   6.691   3.987   8.235  0.4388 -1.4836  0.5671
 8449SOL     OW26787   6.326   1.298   5.624 -0.0274 -0.5462  0.2328
 8449SOL    HW126788   6.308   1.323   5.534 -0.6922 -0.3144  0.4193
 8449SOL    HW226789   6.374   1.372   5.661 -1.3301  0.1666  0.5699
 8450SOL     OW26790   3.150   2.734   6.460 -0.4134  0.2121  0.2522
 8450SOL    HW126791   3.235   2.708   6.495 -0.6009  0.3916  0.8543
 8450SOL    HW226792   3.134   2.673   6.387  0.4749  0.5261 -0.2231
 8451SOL     OW26793   0.591   3.207   7.057  0.1277  0.1216 -0.0667
 8451SOL    HW126794   0.562   3.166   6.976 -1.3477  2.9082 -1.0691
 8451SOL    HW226795   0.558   3.149   7.126  1.8102 -2.5395 -1.3461
 8452SOL     OW26796   7.377   0.081   7.894 -0.8703 -0.3230 -0.0541
 8452SOL    HW126797   7.386   0.147   7.963  1.0901 -0.8653  0.2797
 8452SOL    HW226798   7.333   0.008   7.937 -1.7077  0.1751 -0.0278
 8453SOL     OW26799   7.098   1.353  11.447  0.0558  0.2665  0.5477
 8453SOL    HW126800   7.091   1.339  11.542 -3.4320  0.6019  0.4489
 8453SOL    HW226801   7.100   1.264  11.411 -0.7682  0.1094  0.8630
 8454SOL     OW26802   7.241   0.254   7.144 -0.1536  0.4131  0.1804
 8454SOL    HW126803   7.249   0.167   7.181 -2.0633  0.8380  1.7476
 8454SOL    HW226804   7.254   0.313   7.218  1.1281  1.4980 -0.8545
 8455SOL     OW26805   2.227   1.889  10.455  0.0409 -0.5483 -0.2994
 8455SOL    HW126806   2.234   1.918  10.546 -0.6651 -0.2933 -0.3225
 8455SOL    HW226807   2.261   1.962  10.404 -0.3006 -0.3723 -0.2783
 8456SOL     OW26808   2.385   5.746   9.659  0.1797  0.2926  0.0609
 8456SOL    HW126809   2.394   5.820   9.597  0.8412 -0.7702 -1.1592
 8456SOL    HW226810   2.304   5.702   9.631  0.1879  0.1239  0.3080
 8457SOL     OW26811   0.061   7.253   0.467  0.2295  0.3916  0.0552
 8457SOL    HW126812   0.146   7.232   0.427  0.5829  0.4734  0.7340
 8457SOL    HW226813   0.077   7.335   0.513 -0.2222  0.4014  0.1938
 8458SOL     OW26814   3.818   7.194   5.963 -0.1010  0.5341 -0.5548
 8458SOL    HW126815   3.904   7.153   5.965 -0.7135 -1.0269  2.9344
 8458SOL    HW226816   3.759   7.125   5.931 -0.2466  1.2321 -1.8592
 8459SOL     OW26817   4.958   0.816   5.375  0.7991  0.3619  0.4512
 8459SOL    HW126818   5.037   0.870   5.377  0.6054  0.6935 -0.3892
 8459SOL    HW226819   4.949   0.789   5.284  0.1077  0.0752  0.5914
 8460SOL     OW26820   6.145   2.507   2.327 -0.3765  0.1832  0.3435
 8460SOL    HW126821   6.164   2.472   2.413  0.4973 -0.4330 -0.0810
 8460SOL    HW226822   6.208   2.464   2.269 -1.0096  0.5078 -0.6160
 8461SOL     OW26823   2.422   5.795  12.107 -0.0219  0.2476  0.0500
 8461SOL    HW126824   2.434   5.776  12.200  0.2660 -0.6417 -0.1665
 8461SOL    HW226825   2.510   5.815  12.076 -0.1121  0.4936 -0.0529
 8462SOL     OW26826   3.146   7.284   4.068 -0.3495 -0.2919  0.2278
 8462SOL    HW126827   3.100   7.202   4.087 -2.0689 -0.0276 -2.2946
 8462SOL    HW226828   3.210   7.260   4.001  0.2591  0.1731  0.6304
 8463SOL     OW26829   0.425   2.142   6.052  0.0798  0.7013 -0.5123
 8463SOL    HW126830   0.439   2.056   6.092  1.8205  1.6142  0.9848
 8463SOL    HW226831   0.430   2.125   5.958 -2.0516 -1.1818 -0.3798
 8464SOL     OW26832   4.745   0.787   2.394 -0.0347  0.0699  0.3969
 8464SOL    HW126833   4.747   0.880   2.375 -0.4324 -0.0240 -0.1105
 8464SOL    HW226834   4.654   0.768   2.415  0.3057  0.0787  1.9671
 8465SOL     OW26835   5.803   0.414  11.094 -0.6812 -0.4804 -0.4281
 8465SOL    HW126836   5.857   0.467  11.152 -0.2352 -0.9818 -0.3755
 8465SOL    HW226837   5.756   0.354  11.152 -1.0289 -0.2818 -0.5025
 8466SOL     OW26838   6.217   6.607   0.411 -0.0751 -1.0126 -0.1824
 8466SOL    HW126839   6.261   6.552   0.476  0.0906  0.5913  1.1563
 8466SOL    HW226840   6.287   6.657   0.370 -0.3079 -1.0631 -0.6426
 8467SOL     OW26841   4.308   2.168   5.288 -0.2024  0.1816  0.3351
 8467SOL    HW126842   4.260   2.086   5.300  0.6513 -0.2516  0.8164
 8467SOL    HW226843   4.310   2.180   5.193 -1.3498  0.2715  0.2974
 8468SOL     OW26844   4.806   5.930   6.594 -0.6552  0.0509 -0.4888
 8468SOL    HW126845   4.812   5.933   6.499 -0.3134 -1.0442 -0.5092
 8468SOL    HW226846   4.729   5.983   6.615 -1.0776 -0.1837 -1.4073
 8469SOL     OW26847   6.637   0.067   2.369  0.9061  0.0283  0.4142
 8469SOL    HW126848   6.601   0.154   2.354  1.7605  0.4564  0.7595
 8469SOL    HW226849   6.690   0.049   2.291  1.7988  0.3909  0.9232
 8470SOL     OW26850   0.560   3.031   4.024 -0.1434 -0.0762  0.3544
 8470SOL    HW126851   0.480   3.031   3.972  0.1145 -1.3467 -0.0876
 8470SOL    HW226852   0.602   3.115   4.005 -0.5246 -0.1292 -0.7536
 8471SOL     OW26853   1.884   3.955  10.483  0.0767  0.3298  0.0374
 8471SOL    HW126854   1.928   3.880  10.521 -1.7820 -0.8827 -0.0871
 8471SOL    HW226855   1.930   3.971  10.400 -0.3567 -1.5914 -0.6151
 8472SOL     OW26856   5.542   6.932   8.371  0.2560  0.4749  0.2008
 8472SOL    HW126857   5.625   6.888   8.388 -0.2167 -0.1652  0.8970
 8472SOL    HW226858   5.529   6.989   8.447 -0.0855  0.3394  0.2463
 8473SOL     OW26859   6.248   5.925   7.457 -0.0771  0.0972  0.2936
 8473SOL    HW126860   6.319   5.923   7.520  0.4857  0.1806 -0.3237
 8473SOL    HW226861   6.177   5.877   7.499  0.7592 -1.0705  0.4311
 8474SOL     OW26862   5.977   3.823   9.433 -0.2620 -0.2082  0.0764
 8474SOL    HW126863   5.959   3.731   9.413 -0.9248 -0.0278 -0.1742
 8474SOL    HW226864   5.960   3.831   9.527  1.9888 -0.8502  0.5951
 8475SOL     OW26865   7.354   2.088   2.356  0.6681 -0.8844  0.0026
 8475SOL    HW126866   7.372   2.148   2.283  0.5946 -0.6704  0.1588
 8475SOL    HW226867   7.408   2.121   2.428 -1.4784  0.7438  0.9878
 8476SOL     OW26868   4.552   3.819  10.297  0.1130 -0.2393 -0.1758
 8476SOL    HW126869   4.559   3.875  10.374  0.0235 -1.6659  0.9037
 8476SOL    HW226870   4.604   3.864  10.230  2.4057 -0.2737  1.4754
 8477SOL     OW26871   5.558   4.873  10.227 -0.0510  0.0847  0.2853
 8477SOL    HW126872   5.523   4.962  10.224 -0.7956 -0.2018  0.2812
 8477SOL    HW226873   5.489   4.822  10.269  0.2407 -0.5568 -0.0091
 8478SOL     OW26874   3.165   4.097   2.206  0.4433 -0.2802 -0.3203
 8478SOL    HW126875   3.248   4.077   2.248  0.4503  0.2119 -0.0932
 8478SOL    HW226876   3.121   4.157   2.267 -0.0788 -0.5434 -0.4330
 8479SOL     OW26877   4.252   5.553   0.303 -0.0441 -0.1446  0.7473
 8479SOL    HW126878   4.269   5.521   0.392  2.4405  2.0352  1.1668
 8479SOL    HW226879   4.240   5.647   0.313  1.0332  0.2652 -1.2697
 8480SOL     OW26880   7.463   3.996  11.531  0.0541  0.6494  0.7024
 8480SOL    HW126881   7.519   4.058  11.484 -0.3871  1.0638  0.7154
 8480SOL    HW226882   7.479   3.912  11.487  1.8312  0.4354  1.6853
 8481SOL     OW26883   2.294   3.899  10.288  0.6373 -0.0989 -0.2629
 8481SOL    HW126884   2.339   3.945  10.359  1.4260  0.4060 -1.0662
 8481SOL    HW226885   2.297   3.807  10.313 -1.8248  0.3140  1.8490
 8482SOL     OW26886   4.448   7.889   9.132  0.3767 -0.2980  0.2754
 8482SOL    HW126887   4.516   7.954   9.152 -1.4024  1.3299  1.2602
 8482SOL    HW226888   4.413   7.916   9.047  0.4751 -0.7430  0.0876
 8483SOL     OW26889   3.393   5.812   8.748  0.2262  0.2985  0.1412
 8483SOL    HW126890   3.323   5.848   8.694  0.1785  0.8409  0.5565
 8483SOL    HW226891   3.386   5.717   8.736  1.1086  0.4379 -1.9091
 8484SOL     OW26892   6.865   3.157   2.595  0.7994  0.3474  0.0217
 8484SOL    HW126893   6.790   3.136   2.649  0.7102 -1.1598 -0.6363
 8484SOL    HW226894   6.832   3.220   2.530 -0.0524 -0.7265 -0.6094
 8485SOL     OW26895   6.365   0.710   1.754  0.3209  0.3958  0.5788
 8485SOL    HW126896   6.406   0.756   1.681 -0.9664  0.9075  0.1479
 8485SOL    HW226897   6.420   0.729   1.829  1.0814  0.7301 -0.0527
 8486SOL     OW26898   5.888   3.213   7.224  0.2729  0.5567 -0.0423
 8486SOL    HW126899   5.799   3.219   7.188 -0.2709  1.2647  1.3330
 8486SOL    HW226900   5.918   3.304   7.227  2.1418  0.1544 -2.9631
 8487SOL     OW26901   1.955   1.826   7.030  0.4927  0.2490  0.3806
 8487SOL    HW126902   1.924   1.883   6.959  1.9486 -0.0461 -0.5381
 8487SOL    HW226903   1.878   1.776   7.055  0.1429 -0.3663 -1.7239
 8488SOL     OW26904   7.243   5.412   9.128  0.5224 -0.3644  0.3319
 8488SOL    HW126905   7.168   5.469   9.146  0.8148  0.1929 -0.1698
 8488SOL    HW226906   7.204   5.328   9.105  0.0565 -0.1703  0.3928
 8489SOL     OW26907   2.449   2.321  10.481  0.3947  0.3933 -0.1412
 8489SOL    HW126908   2.533   2.285  10.452 -0.1834 -0.7131 -0.5096
 8489SOL    HW226909   2.396   2.244  10.501 -0.2404  1.0976  0.9682
 8490SOL     OW26910   2.224   6.563   2.579 -0.4171  0.2223 -0.5225
 8490SOL    HW126911   2.317   6.557   2.598 -0.5246  0.0225 -0.0515
 8490SOL    HW226912   2.212   6.508   2.501 -0.3324 -0.7072  0.0990
 8491SOL     OW26913   7.967   7.811  10.575 -0.2223  0.6689  0.3640
 8491SOL    HW126914   7.908   7.860  10.519 -1.4798 -0.8994  0.2498
 8491SOL    HW226915   7.988   7.732  10.525 -2.1727 -1.2690  2.3649
 8492SOL     OW26916   0.687   2.734   2.149 -0.8811  0.8352 -0.1483
 8492SOL    HW126917   0.717   2.664   2.208  2.0040  2.5608  0.6508
 8492SOL    HW226918   0.690   2.695   2.062  0.8707 -0.0493  0.2566
 8493SOL     OW26919   2.402   4.605   8.422 -0.2973 -0.0070 -0.0224
 8493SOL    HW126920   2.470   4.657   8.465 -0.8642  0.7908 -0.0713
 8493SOL    HW226921   2.448   4.561   8.350  0.6856 -1.4559  1.4249
 8494SOL     OW26922   0.769   3.704   4.872  0.2370 -0.1003 -0.1436
 8494SOL    HW126923   0.829   3.710   4.797 -1.8211  0.9774 -1.8369
 8494SOL    HW226924   0.696   3.763   4.849 -0.4492  0.3746  2.7900
 8495SOL     OW26925   3.426   1.136   2.502 -0.3477  0.1034 -0.3707
 8495SOL    HW126926   3.426   1.215   2.449  2.1529 -0.1711 -0.8683
 8495SOL    HW226927   3.488   1.154   2.573  1.1511 -1.7471 -1.1188
 8496SOL     OW26928   6.595   3.612   2.987 -0.1380  0.1264  0.2791
 8496SOL    HW126929   6.515   3.664   2.995 -0.5410 -0.7931  3.2977
 8496SOL    HW226930   6.647   3.658   2.921 -3.4940  0.1971 -2.6809
 8497SOL     OW26931   3.850   6.448   3.108 -0.0795 -0.5974  0.7494
 8497SOL    HW126932   3.911   6.414   3.174 -0.2528 -0.9868  0.7095
 8497SOL    HW226933   3.810   6.525   3.150  0.3643 -0.3983  0.8111
 8498SOL     OW26934   5.097   7.184   7.060 -0.0490 -0.0361 -0.0756
 8498SOL    HW126935   5.103   7.276   7.086  0.7804  0.1852 -0.9739
 8498SOL    HW226936   5.069   7.139   7.140  1.4755  0.7359  0.9648
 8499SOL     OW26937   4.994   7.199   5.369  0.0251  0.1807  0.1864
 8499SOL    HW126938   4.966   7.140   5.440 -0.2789 -0.4141 -0.4203
 8499SOL    HW226939   5.032   7.141   5.303 -1.0032  0.5600 -0.7787
 8500SOL     OW26940   6.934   6.250   3.170  0.2253 -0.0187  0.0618
 8500SOL    HW126941   6.847   6.290   3.176 -0.3032 -1.0288 -0.6448
 8500SOL    HW226942   6.952   6.246   3.076  0.3482 -1.2627  0.1253
 8501SOL     OW26943   1.785   5.540   1.745 -0.0727  0.1013  0.0696
 8501SOL    HW126944   1.696   5.543   1.710  0.4121  0.0345 -1.2294
 8501SOL    HW226945   1.775   5.561   1.838 -1.4801 -0.2704  0.0251
 8502SOL     OW26946   3.887   0.699   5.322 -0.1672 -1.0055 -0.0598
 8502SOL    HW126947   3.817   0.758   5.294 -0.3206 -0.4116  1.4821
 8502SOL    HW226948   3.960   0.718   5.263 -0.6475 -0.2184 -0.4099
 8503SOL     OW26949   2.434   7.268  11.451  0.6813 -0.1533 -0.2160
 8503SOL    HW126950   2.520   7.281  11.410  0.5052  1.0317 -0.2434
 8503SOL    HW226951   2.382   7.342  11.420  0.7044  1.1311  2.5629
 8504SOL     OW26952   7.668   3.115   7.679  0.2699  0.4165 -0.0780
 8504SOL    HW126953   7.748   3.087   7.724 -0.2219  0.4168  0.7973
 8504SOL    HW226954   7.652   3.045   7.615  0.7720  0.2451 -0.0252
 8505SOL     OW26955   2.155   3.250   1.050  0.0056 -0.2180  0.8566
 8505SOL    HW126956   2.236   3.293   1.023  0.7249 -0.2299  2.8120
 8505SOL    HW226957   2.099   3.321   1.082 -0.5546 -0.2778  0.0543
 8506SOL     OW26958   7.823   7.022   1.764 -0.1799 -0.1750 -0.2550
 8506SOL    HW126959   7.902   7.037   1.712 -0.6318  0.1644 -0.8392
 8506SOL    HW226960   7.850   7.043   1.854 -0.9774  5.2077 -1.0044
 8507SOL     OW26961   1.596   4.402   6.851  0.1950 -0.3717 -0.2743
 8507SOL    HW126962   1.597   4.381   6.758  0.6499 -1.8014  0.0288
 8507SOL    HW226963   1.609   4.497   6.854 -0.6353 -0.1871 -1.6814
 8508SOL     OW26964   7.142   3.000   2.350  0.5432 -0.0331 -1.3989
 8508SOL    HW126965   7.138   3.072   2.287 -0.0623  2.5613  1.3591
 8508SOL    HW226966   7.209   3.027   2.412 -1.5246 -0.4915  1.1872
 8509SOL     OW26967   4.920   5.364  11.292 -0.3210 -0.0405  0.5077
 8509SOL    HW126968   4.887   5.363  11.202 -1.2174 -0.7078  0.8329
 8509SOL    HW226969   4.892   5.449  11.327  0.8432  0.6315 -0.1145
 8510SOL     OW26970   5.989   6.238   7.433  0.1405  1.1577 -0.2485
 8510SOL    HW126971   5.984   6.144   7.419  1.4771  1.1562 -0.8987
 8510SOL    HW226972   5.898   6.267   7.436 -0.3063 -0.2729  0.9141
 8511SOL     OW26973   4.640   2.349   4.211  0.0061 -0.1207  0.0959
 8511SOL    HW126974   4.571   2.393   4.161 -0.2961 -2.6944 -2.0056
 8511SOL    HW226975   4.601   2.266   4.238  0.9735  0.1782  2.6868
 8512SOL     OW26976   5.267   3.880   2.848 -0.6721 -0.5722 -0.4583
 8512SOL    HW126977   5.206   3.807   2.853 -2.2192  0.5785 -1.3544
 8512SOL    HW226978   5.257   3.925   2.932  0.5229 -1.5227  0.2254
 8513SOL     OW26979   6.628   6.019   7.210 -0.3457  0.2764  0.6908
 8513SOL    HW126980   6.694   6.007   7.142  0.6160  1.6176  1.3392
 8513SOL    HW226981   6.546   5.990   7.170  0.5781 -1.1615 -0.2295
 8514SOL     OW26982   7.525   6.975   3.187  0.4314  0.2088 -0.3599
 8514SOL    HW126983   7.505   6.899   3.241  0.6003  0.3560 -0.0854
 8514SOL    HW226984   7.601   7.015   3.230 -0.1104  0.9539 -0.0650
 8515SOL     OW26985   4.217   2.665   7.776 -0.0590  0.1213 -0.1873
 8515SOL    HW126986   4.272   2.589   7.756  1.3673  0.3552  2.3780
 8515SOL    HW226987   4.272   2.741   7.756  0.3238  0.3640  1.5868
 8516SOL     OW26988   6.540   1.564   7.241  0.5291 -0.6965 -0.0630
 8516SOL    HW126989   6.445   1.549   7.243  0.7726 -2.6706  2.6188
 8516SOL    HW226990   6.578   1.480   7.267  2.9317  0.5164  0.6495
 8517SOL     OW26991   6.491   1.635   0.346 -0.0056 -0.0141  0.2288
 8517SOL    HW126992   6.583   1.622   0.370  0.6589  2.3005 -0.8224
 8517SOL    HW226993   6.463   1.710   0.398 -0.7934  0.3357 -0.6666
 8518SOL     OW26994   3.158   7.070   9.285  0.2538 -0.0639 -0.0022
 8518SOL    HW126995   3.185   7.077   9.194  1.7750  0.6958  0.4795
 8518SOL    HW226996   3.070   7.031   9.281  0.3191 -0.1038 -1.7669
 8519SOL     OW26997   6.667   4.372  11.854  0.0327 -0.3259  0.2273
 8519SOL    HW126998   6.628   4.341  11.773 -0.7833  1.0982  0.0490
 8519SOL    HW226999   6.677   4.467  11.842  0.7334 -0.2144  1.4452
 8520SOL     OW27000   3.949   1.270   1.668  0.0635  0.2430  0.8994
 8520SOL    HW127001   3.980   1.184   1.697 -1.5664 -0.4846  0.5856
 8520SOL    HW227002   4.002   1.290   1.591  0.5439 -0.4149  1.0460
 8521SOL     OW27003   7.455   4.655   9.926  0.4701  0.7006 -0.3263
 8521SOL    HW127004   7.427   4.736   9.968  1.2687  0.2710  1.0761
 8521SOL    HW227005   7.549   4.664   9.915  1.1563 -1.2495  2.7819
 8522SOL     OW27006   1.932   0.502   4.804 -0.1072  0.2630  0.1224
 8522SOL    HW127007   1.846   0.473   4.777 -0.4969 -1.8629  3.1924
 8522SOL    HW227008   1.993   0.440   4.763 -0.2875 -0.0244  0.2885
 8523SOL     OW27009   4.994   0.311   8.746 -0.1427 -0.0341  0.4464
 8523SOL    HW127010   4.913   0.317   8.797  0.6490  1.2006  1.6395
 8523SOL    HW227011   5.061   0.291   8.811  0.6740  0.0670 -0.3574
 8524SOL     OW27012   3.721   2.143   0.540  0.1505  0.0642 -0.0282
 8524SOL    HW127013   3.757   2.202   0.607  0.7596  1.1163 -1.2336
 8524SOL    HW227014   3.747   2.056   0.569 -0.6335  0.3541  1.7241
 8525SOL     OW27015   5.284   4.116   6.457  0.0684 -0.1737 -0.2556
 8525SOL    HW127016   5.345   4.047   6.431  1.0705  0.7021 -0.2933
 8525SOL    HW227017   5.201   4.091   6.417 -0.0575 -2.2532  1.1362
 8526SOL     OW27018   5.819   4.753  11.782  0.0632  0.3990 -0.4995
 8526SOL    HW127019   5.763   4.712  11.717  0.1950  0.5171 -0.6884
 8526SOL    HW227020   5.759   4.790  11.846 -0.0516 -1.4944  0.5583
 8527SOL     OW27021   5.053   7.496   3.367  0.0573  0.0291 -0.0589
 8527SOL    HW127022   5.138   7.462   3.341  0.8728  0.3525  1.9665
 8527SOL    HW227023   5.045   7.472   3.460 -2.0341  0.0657 -0.1771
 8528SOL     OW27024   1.084   5.592   8.310  0.5314  0.4187 -0.0002
 8528SOL    HW127025   1.105   5.579   8.218  0.5873 -0.7368  0.1611
 8528SOL    HW227026   1.053   5.683   8.315  0.2708  0.4152 -1.1971
 8529SOL     OW27027   0.182   0.856   4.517  0.0684  0.7247  0.6933
 8529SOL    HW127028   0.100   0.817   4.548  0.8911 -0.0519  1.9771
 8529SOL    HW227029   0.216   0.793   4.454 -0.6544  1.3962 -0.4055
 8530SOL     OW27030   2.874   3.034  11.572 -0.1382 -0.3842 -0.2239
 8530SOL    HW127031   2.921   3.117  11.583  0.3946 -0.6358 -0.5402
 8530SOL    HW227032   2.928   2.970  11.621 -0.1047 -0.6913 -0.6575
 8531SOL     OW27033   6.283   1.819   7.135 -0.2604 -0.3309 -0.3212
 8531SOL    HW127034   6.252   1.771   7.058  1.8368 -0.1315 -1.3729
 8531SOL    HW227035   6.329   1.895   7.099 -0.1243  0.3279  1.1741
 8532SOL     OW27036   3.098   1.565  12.185  0.0349  0.3326 -0.3300
 8532SOL    HW127037   3.079   1.659  12.189  3.4055  1.1140 -0.2536
 8532SOL    HW227038   3.091   1.536  12.276 -0.4961  0.6186 -0.2738
 8533SOL     OW27039   0.573   1.215   0.116  0.0795 -0.3666 -0.1158
 8533SOL    HW127040   0.540   1.224   0.027  2.3862 -1.1031 -1.0996
 8533SOL    HW227041   0.605   1.125   0.121 -0.7255 -0.5952  1.7537
 8534SOL     OW27042   5.645   4.698   8.639  0.2793 -0.5978 -0.4273
 8534SOL    HW127043   5.695   4.739   8.709  0.5694 -1.8917  0.1483
 8534SOL    HW227044   5.682   4.734   8.559 -0.4476  1.3535  0.0629
 8535SOL     OW27045   7.889   7.479   5.222 -0.1452 -0.3733  0.5666
 8535SOL    HW127046   7.813   7.456   5.168 -1.0686  3.4177 -0.0339
 8535SOL    HW227047   7.852   7.503   5.307  0.3504  1.2843  0.3469
 8536SOL     OW27048   0.724   7.087   5.374  0.2189  0.0685 -0.0426
 8536SOL    HW127049   0.781   7.089   5.297  0.9054  0.4186  0.4684
 8536SOL    HW227050   0.749   7.007   5.421  1.0619  0.7900  0.7553
 8537SOL     OW27051   1.827   5.346  10.898  0.1570  0.5592 -0.1334
 8537SOL    HW127052   1.811   5.365  10.991  0.7180 -0.4791  0.1915
 8537SOL    HW227053   1.904   5.399  10.876  0.9869 -0.3718  0.4398
 8538SOL     OW27054   1.117   5.625  11.934 -0.1096  0.1692  0.6612
 8538SOL    HW127055   1.094   5.611  12.026 -2.2007  0.3198  0.2097
 8538SOL    HW227056   1.130   5.537  11.899  2.1932  0.1557  1.3967
 8539SOL     OW27057   7.959   3.759   2.752  0.4494  0.1404  0.1719
 8539SOL    HW127058   8.002   3.698   2.692  1.4017 -0.4394  1.3996
 8539SOL    HW227059   7.950   3.710   2.834 -1.5177  0.6472  0.3148
 8540SOL     OW27060   7.128   0.032   2.029 -0.3986  0.0809 -0.5821
 8540SOL    HW127061   7.156  -0.051   2.068 -1.4930  0.0195  0.1000
 8540SOL    HW227062   7.199   0.093   2.049  0.3270 -0.6336 -0.9238
 8541SOL     OW27063   4.654   0.008   4.666  0.1877 -0.7977  0.3340
 8541SOL    HW127064   4.628  -0.075   4.706  0.2374 -0.2580  1.5250
 8541SOL    HW227065   4.687   0.060   4.738 -0.9521  0.7112 -0.1728
 8542SOL     OW27066   1.107   1.123   0.275 -0.5271  0.9431  0.2883
 8542SOL    HW127067   1.109   1.187   0.204  2.4087  0.0231 -0.6001
 8542SOL    HW227068   1.123   1.174   0.354 -1.9715  1.7342  0.0986
 8543SOL     OW27069   4.577   2.372   1.035 -0.0225  0.2416 -0.4753
 8543SOL    HW127070   4.643   2.345   1.100 -0.7454 -1.8400 -0.5242
 8543SOL    HW227071   4.494   2.344   1.073 -0.5043 -0.6367 -2.0839
 8544SOL     OW27072   3.793   3.845   0.570  0.2058 -0.5717 -0.8099
 8544SOL    HW127073   3.799   3.932   0.609 -1.8510  0.7144 -3.0822
 8544SOL    HW227074   3.765   3.788   0.641 -1.2388  1.2070  0.1340
 8545SOL     OW27075   2.471   4.323   3.022  0.4539  0.6469 -0.0806
 8545SOL    HW127076   2.474   4.233   3.055  0.0371  0.3135 -0.9024
 8545SOL    HW227077   2.543   4.328   2.959 -0.5707  0.3244 -1.3310
 8546SOL     OW27078   1.636   0.311   7.446  0.3223  0.0059 -0.0219
 8546SOL    HW127079   1.614   0.222   7.420  0.5851 -0.2377  0.5793
 8546SOL    HW227080   1.552   0.358   7.443 -0.3271 -0.9014  2.2027
 8547SOL     OW27081   7.328   4.942  12.447 -0.3236  0.2483  0.0664
 8547SOL    HW127082   7.262   4.875  12.429  1.6993 -1.8915  0.1882
 8547SOL    HW227083   7.298   4.983  12.528 -2.6863  1.0084 -1.1003
 8548SOL     OW27084   5.054   3.551   2.503 -0.3350  0.0788 -0.1624
 8548SOL    HW127085   4.958   3.552   2.496 -0.2748  2.7779 -1.9947
 8548SOL    HW227086   5.072   3.535   2.595 -2.4440 -2.5011 -0.0739
 8549SOL     OW27087   6.472   1.496   8.317 -0.1436  0.2285  0.4382
 8549SOL    HW127088   6.486   1.488   8.222 -1.4546  1.0010  0.1593
 8549SOL    HW227089   6.381   1.469   8.330 -0.2152  0.8838  1.3782
 8550SOL     OW27090   2.777   5.236  10.086  1.2546  0.2518 -0.2258
 8550SOL    HW127091   2.709   5.265  10.025  3.5416 -0.2513 -3.2489
 8550SOL    HW227092   2.811   5.154  10.048  1.8759 -0.9115  2.5500
 8551SOL     OW27093   1.213   6.623   6.574 -0.3027 -0.4450 -0.4384
 8551SOL    HW127094   1.167   6.544   6.547  0.2485 -0.7496 -0.4923
 8551SOL    HW227095   1.146   6.676   6.616 -1.0802 -0.1813 -1.9286
 8552SOL     OW27096   1.065   0.664   9.807 -0.3106 -0.1041  0.5007
 8552SOL    HW127097   1.131   0.727   9.833  0.7028 -1.3624  1.0985
 8552SOL    HW227098   1.048   0.613   9.886  0.5740 -2.0198 -0.4769
 8553SOL     OW27099   4.960   3.941   9.979  0.0679 -0.1930 -0.5253
 8553SOL    HW127100   5.010   3.879  10.032  0.2983 -0.3809 -0.9562
 8553SOL    HW227101   4.965   4.023  10.027 -0.0590 -0.4539 -0.0553
 8554SOL     OW27102   7.498   0.602   6.069 -0.0212  0.0227 -0.3313
 8554SOL    HW127103   7.512   0.696   6.065 -1.1228  0.1459 -2.0775
 8554SOL    HW227104   7.586   0.565   6.062  0.2800  0.9037 -1.4357
 8555SOL     OW27105   2.922   1.183   1.534  0.0416  0.1248  0.0383
 8555SOL    HW127106   2.831   1.157   1.520  0.0749  0.4463 -0.9069
 8555SOL    HW227107   2.930   1.265   1.485  1.0778 -0.3693 -0.6476
 8556SOL     OW27108   2.547   1.490  10.954  0.1119 -0.2356 -0.4195
 8556SOL    HW127109   2.613   1.470  10.887 -1.2428 -0.3248 -1.7856
 8556SOL    HW227110   2.597   1.521  11.029  1.7169 -0.5651 -1.3152
 8557SOL     OW27111   6.043   3.621   8.257  0.2712  0.2082 -0.2894
 8557SOL    HW127112   6.120   3.588   8.303  1.0505  2.4488  0.1061
 8557SOL    HW227113   6.020   3.702   8.302 -0.8928  0.8096 -1.8602
 8558SOL     OW27114   0.778   6.148   2.052 -0.5053  0.8295  0.0292
 8558SOL    HW127115   0.690   6.144   2.014  0.1754  0.0995 -1.5109
 8558SOL    HW227116   0.762   6.166   2.145 -2.2861  0.4562 -0.1664
 8559SOL     OW27117   4.307   7.617  11.669  0.3041 -0.1778 -0.0748
 8559SOL    HW127118   4.370   7.673  11.624 -0.6998  0.1318 -1.1338
 8559SOL    HW227119   4.345   7.529  11.664  0.4549 -0.0656 -1.0820
 8560SOL     OW27120   5.481   0.179  10.530 -0.1930  0.3275  0.6537
 8560SOL    HW127121   5.438   0.134  10.604 -0.3750  1.0601  1.0095
 8560SOL    HW227122   5.573   0.155  10.538 -0.2274  0.3085  1.0587
 8561SOL     OW27123   0.225   0.130   0.682  0.1703  0.6751  0.4172
 8561SOL    HW127124   0.178   0.061   0.636  0.5681  1.2246 -0.8521
 8561SOL    HW227125   0.310   0.091   0.704 -0.2270  0.2310  1.2224
 8562SOL     OW27126   7.149   4.351   1.550  0.0009 -0.4788 -0.1916
 8562SOL    HW127127   7.202   4.409   1.605  0.4267 -0.7037 -0.3569
 8562SOL    HW227128   7.129   4.276   1.606 -1.1520  0.1347  0.2536
 8563SOL     OW27129   5.930   2.948   3.636 -0.2146  0.5443 -0.3742
 8563SOL    HW127130   5.967   2.997   3.710 -1.3985 -0.0107  0.6248
 8563SOL    HW227131   6.007   2.921   3.585  0.6855  0.3881  1.0067
 8564SOL     OW27132   2.832   6.027   9.720 -0.0481  0.4303  0.2017
 8564SOL    HW127133   2.743   6.063   9.721 -0.0292  0.4709  0.9615
 8564SOL    HW227134   2.887   6.100   9.693 -0.3050  0.2321 -0.9348
 8565SOL     OW27135   4.239   2.145   5.010  0.0884  0.5944 -0.1090
 8565SOL    HW127136   4.275   2.059   4.986 -1.1141 -0.3810  1.4461
 8565SOL    HW227137   4.146   2.139   4.989  0.1943  1.9939 -1.1399
 8566SOL     OW27138   5.621   4.968   0.963  0.4320 -0.7551 -0.1683
 8566SOL    HW127139   5.698   5.025   0.960 -0.1066 -0.0480 -0.5076
 8566SOL    HW227140   5.557   5.009   0.906 -0.6791 -0.6581  1.0983
 8567SOL     OW27141   2.289   0.387   5.047  0.2767  0.4811  0.0651
 8567SOL    HW127142   2.298   0.315   5.109  1.2847 -0.1360 -0.7735
 8567SOL    HW227143   2.354   0.451   5.075  2.0581 -0.5878 -1.3661
 8568SOL     OW27144   1.593   4.393  10.765 -0.1727  0.1271 -0.0851
 8568SOL    HW127145   1.560   4.303  10.759 -0.1313 -0.0175  1.4596
 8568SOL    HW227146   1.623   4.402  10.855  1.7527  1.0533 -0.7716
 8569SOL     OW27147   7.507   7.436   3.740  0.6716  0.0190 -0.2123
 8569SOL    HW127148   7.418   7.403   3.728 -0.1973  1.4922  1.6521
 8569SOL    HW227149   7.561   7.357   3.747 -1.0830 -1.1073  2.5205
 8570SOL     OW27150   3.626   1.604   3.976 -0.2188 -0.1795  0.7614
 8570SOL    HW127151   3.649   1.536   4.039 -0.0535 -1.2443 -0.4117
 8570SOL    HW227152   3.590   1.557   3.901 -1.1932  1.1066  0.3803
 8571SOL     OW27153   1.576   4.260   7.587  0.3200  0.2529 -0.1273
 8571SOL    HW127154   1.616   4.347   7.595 -0.5487  0.7064 -0.6417
 8571SOL    HW227155   1.534   4.261   7.501 -1.3788  0.0457  0.6626
 8572SOL     OW27156   5.188   0.424   3.069  0.4465  0.6991 -0.0574
 8572SOL    HW127157   5.238   0.415   2.988 -0.5530 -1.9178 -0.4763
 8572SOL    HW227158   5.219   0.507   3.106  2.6860  0.8069 -1.8789
 8573SOL     OW27159   3.207   4.658   3.786 -0.1623  0.3151 -0.3080
 8573SOL    HW127160   3.139   4.723   3.802 -0.5971  0.2076 -1.6571
 8573SOL    HW227161   3.205   4.602   3.863 -2.7572 -0.6912 -1.0249
 8574SOL     OW27162   7.471   1.770   7.113  0.9953 -0.1297  0.0272
 8574SOL    HW127163   7.549   1.821   7.133  0.9756 -0.7832  1.9925
 8574SOL    HW227164   7.496   1.679   7.132  0.7072 -0.7746 -2.3708
 8575SOL     OW27165   6.926   7.913   8.253  0.2458  0.2811 -0.1079
 8575SOL    HW127166   6.978   7.834   8.270 -0.5361 -0.0750  0.7834
 8575SOL    HW227167   6.864   7.886   8.186 -0.2983 -0.0127  0.4960
 8576SOL     OW27168   7.188   1.903   9.332  0.1313  0.6435  0.4787
 8576SOL    HW127169   7.223   1.923   9.419  0.4295  0.2314  0.4541
 8576SOL    HW227170   7.227   1.819   9.309  0.3425  0.9249 -0.2125
 8577SOL     OW27171   6.944   1.915   8.629  0.0401 -0.0446  0.0535
 8577SOL    HW127172   6.853   1.939   8.609  0.4984 -0.5411 -3.1493
 8577SOL    HW227173   6.941   1.821   8.645 -0.1539  0.1322  1.0840
 8578SOL     OW27174   4.683   7.473  12.216 -0.4192  0.5545  0.1567
 8578SOL    HW127175   4.720   7.411  12.153  0.8754  1.0237  0.4382
 8578SOL    HW227176   4.714   7.444  12.301  2.7115  3.1733  0.0921
 8579SOL     OW27177   5.498   3.188   1.818  0.0757  0.2385 -0.0409
 8579SOL    HW127178   5.468   3.230   1.898  1.5169  1.0593  0.1056
 8579SOL    HW227179   5.571   3.133   1.845  2.3702  2.5488 -1.0486
 8580SOL     OW27180   5.334   4.502  10.138  0.0409 -0.1527  0.4500
 8580SOL    HW127181   5.378   4.577  10.098  1.1161 -0.9291  0.1383
 8580SOL    HW227182   5.393   4.428  10.124 -1.5347 -1.3433 -0.3633
 8581SOL     OW27183   3.352   6.641   3.324  0.4450  0.0448  0.3919
 8581SOL    HW127184   3.291   6.683   3.384  0.1815  1.3290 -0.7239
 8581SOL    HW227185   3.297   6.580   3.273  0.4994 -0.3667  0.8205
 8582SOL     OW27186   5.218   4.337   3.586  0.6641 -0.7426 -0.6896
 8582SOL    HW127187   5.178   4.308   3.504 -0.5406  0.1885 -0.4460
 8582SOL    HW227188   5.147   4.340   3.649  1.1857  0.4485 -0.1122
 8583SOL     OW27189   0.534   7.414   2.795 -0.4350 -0.5652  0.0867
 8583SOL    HW127190   0.472   7.344   2.776 -0.5294 -0.0654 -1.5664
 8583SOL    HW227191   0.568   7.440   2.710  0.0488  0.9968  0.7208
 8584SOL     OW27192   3.214   4.949  10.901  0.6305  0.1135  0.7044
 8584SOL    HW127193   3.257   5.029  10.871  0.2074  0.5114  1.1247
 8584SOL    HW227194   3.168   4.976  10.981 -0.7983 -0.1662  0.0001
 8585SOL     OW27195   3.329   2.493   7.772 -0.4330 -0.2989 -0.4722
 8585SOL    HW127196   3.345   2.585   7.790  2.7575 -0.7752 -0.2496
 8585SOL    HW227197   3.342   2.449   7.856 -2.3388 -0.9669 -0.4755
 8586SOL     OW27198   3.658   3.898   7.235 -0.1656  0.1441 -0.1751
 8586SOL    HW127199   3.683   3.845   7.159 -2.9795  0.6117 -1.5573
 8586SOL    HW227200   3.717   3.973   7.233  3.2055 -2.2225  1.2116
 8587SOL     OW27201   2.520   2.255   3.254  0.2056  0.7249  0.1936
 8587SOL    HW127202   2.563   2.332   3.289  0.5357 -0.0451  1.5467
 8587SOL    HW227203   2.465   2.223   3.325 -0.9144  0.4270 -0.7777
 8588SOL     OW27204   2.364   0.027  11.149  0.3735  0.2575 -0.0840
 8588SOL    HW127205   2.404   0.104  11.190  0.8730 -0.2434  0.3964
 8588SOL    HW227206   2.383   0.037  11.056  0.4784  0.6961 -0.0183
 8589SOL     OW27207   1.092   2.604   7.362 -0.4343  0.3770  0.0579
 8589SOL    HW127208   1.084   2.684   7.414  0.4599  0.7760 -0.3945
 8589SOL    HW227209   1.161   2.554   7.406 -0.6009  0.1054  0.0135
 8590SOL     OW27210   4.834   5.912  10.896  0.4230  0.0947  0.5506
 8590SOL    HW127211   4.780   5.985  10.925  0.3266 -0.0905  0.8405
 8590SOL    HW227212   4.876   5.944  10.816  0.0839  0.3293  0.4627
 8591SOL     OW27213   2.794   7.504   0.791 -0.4012  0.1813  0.2722
 8591SOL    HW127214   2.830   7.529   0.706 -1.2963 -0.0402 -0.1793
 8591SOL    HW227215   2.847   7.430   0.819  0.1918  0.5430  0.1263
 8592SOL     OW27216   4.003   5.832   5.542  0.3224  0.7964 -0.3010
 8592SOL    HW127217   3.933   5.897   5.547 -1.0299 -0.5938 -0.3375
 8592SOL    HW227218   3.979   5.776   5.468  1.0671 -0.1673  0.1632
 8593SOL     OW27219   6.632   7.746  11.566  0.1568 -0.2029  0.1058
 8593SOL    HW127220   6.651   7.653  11.584 -1.1540 -0.6655 -0.7667
 8593SOL    HW227221   6.629   7.787  11.652 -4.2233 -1.9848  1.0653
 8594SOL     OW27222   5.127   3.465   6.169  0.1461 -0.1679  0.4848
 8594SOL    HW127223   5.112   3.529   6.099  0.4197  0.5734  1.0850
 8594SOL    HW227224   5.133   3.381   6.124  2.1192  0.4999 -0.6129
 8595SOL     OW27225   7.685   6.278   9.866  0.2204  0.3133 -0.1023
 8595SOL    HW127226   7.632   6.299   9.790  0.4959  2.1252  0.1757
 8595SOL    HW227227   7.775   6.271   9.831  0.2210  0.2199 -0.0832
 8596SOL     OW27228   5.980   3.461   2.877  0.1356  0.0787 -0.5352
 8596SOL    HW127229   6.042   3.501   2.937  0.7442 -0.6163 -0.6848
 8596SOL    HW227230   5.990   3.367   2.891 -1.1163 -0.0465 -0.3373
 8597SOL     OW27231   6.948   4.663   4.920 -0.5662  0.0845 -0.2626
 8597SOL    HW127232   7.011   4.734   4.931  1.3883 -1.5025 -0.7251
 8597SOL    HW227233   6.893   4.668   4.998  0.3458  1.3050  0.3406
 8598SOL     OW27234   6.328   6.885  11.833  0.5966 -0.4988  0.3496
 8598SOL    HW127235   6.316   6.829  11.910 -0.1442  0.2747  0.8069
 8598SOL    HW227236   6.271   6.960  11.849  0.6998 -0.1636 -0.7980
 8599SOL     OW27237   3.440   4.730   9.276  0.4237  0.5508 -0.4038
 8599SOL    HW127238   3.435   4.753   9.184  1.0434  0.9816 -0.3376
 8599SOL    HW227239   3.420   4.636   9.278  0.9771  0.4103 -1.0447
 8600SOL     OW27240   7.533   2.739   1.320 -0.8358  0.5490  0.5891
 8600SOL    HW127241   7.460   2.793   1.352 -2.3837 -1.0126 -0.1785
 8600SOL    HW227242   7.514   2.651   1.352 -0.7171 -0.4216 -1.8155
 8601SOL     OW27243   0.961   3.694   5.340 -0.3455  0.2205  0.1003
 8601SOL    HW127244   0.931   3.732   5.257 -1.2482  2.2793  1.2869
 8601SOL    HW227245   0.901   3.620   5.355  0.2306 -0.5734 -1.3513
 8602SOL     OW27246   2.866   1.559   4.438  0.6217  0.2030 -0.4129
 8602SOL    HW127247   2.898   1.470   4.453  0.3028  0.1477 -0.0454
 8602SOL    HW227248   2.822   1.582   4.519  0.0813  0.4298 -0.7708
 8603SOL     OW27249   5.055   7.307   1.080  0.5768 -0.2659 -0.0344
 8603SOL    HW127250   5.012   7.341   1.001  2.8497 -0.3392 -1.3638
 8603SOL    HW227251   5.028   7.368   1.149 -2.0920 -0.6520 -0.6185
 8604SOL     OW27252   2.106   4.318   7.486  0.1014  0.0224 -0.3868
 8604SOL    HW127253   2.132   4.408   7.502 -0.4134 -0.1481  1.7784
 8604SOL    HW227254   2.156   4.266   7.549 -1.6741 -0.8565  0.3856
 8605SOL     OW27255   5.052   3.108   2.617 -0.1306 -0.0617  0.5387
 8605SOL    HW127256   4.983   3.162   2.578  0.0393 -0.5008 -0.3921
 8605SOL    HW227257   5.053   3.134   2.710 -1.1585  0.3532  0.4486
 8606SOL     OW27258   1.698   4.886   2.605  0.9419  0.1483 -0.1012
 8606SOL    HW127259   1.677   4.794   2.620 -3.0480  1.0928  1.2186
 8606SOL    HW227260   1.760   4.907   2.674 -0.5168 -0.8598  1.6048
 8607SOL     OW27261   7.209   3.632   0.204 -0.0355 -0.0843  0.6820
 8607SOL    HW127262   7.167   3.659   0.285 -3.2189 -0.1631 -0.7671
 8607SOL    HW227263   7.178   3.542   0.189 -3.0974  1.2257 -2.4943
 8608SOL     OW27264   2.925   6.193   5.932  0.1479  0.1706 -0.0923
 8608SOL    HW127265   3.006   6.245   5.930 -0.2267  0.7473 -0.9556
 8608SOL    HW227266   2.882   6.214   5.849  0.2612 -1.9605 -0.7531
 8609SOL     OW27267   6.336   0.633   2.296  0.2313  0.2369 -0.9668
 8609SOL    HW127268   6.313   0.566   2.361 -0.5541 -2.4849 -3.7958
 8609SOL    HW227269   6.417   0.671   2.329  0.3037 -1.5891  1.2046
 8610SOL     OW27270   0.407   4.338   0.438 -0.1016 -0.0342 -0.2850
 8610SOL    HW127271   0.392   4.251   0.400 -1.2560 -0.1965  0.5059
 8610SOL    HW227272   0.502   4.341   0.455  0.3596 -0.1952 -2.5310
 8611SOL     OW27273   2.724   5.906   8.827 -0.0820  0.0314  0.0145
 8611SOL    HW127274   2.636   5.941   8.809  0.0205  0.4417  0.2863
 8611SOL    HW227275   2.728   5.825   8.777 -0.5270  0.1364 -0.2018
 8612SOL     OW27276   3.173   7.809  10.157 -0.2959 -0.1248  0.1831
 8612SOL    HW127277   3.235   7.874  10.123 -0.1844  0.5713  1.6388
 8612SOL    HW227278   3.103   7.861  10.196  0.8071 -0.7208  3.2820
 8613SOL     OW27279   7.211   5.361  12.278  0.1305  0.2533  0.4191
 8613SOL    HW127280   7.292   5.396  12.240  0.9400 -0.3730  1.5341
 8613SOL    HW227281   7.224   5.367  12.372 -1.2926  0.4955  0.6171
 8614SOL     OW27282   0.482   5.281   1.586  0.7408  0.2020 -0.2858
 8614SOL    HW127283   0.459   5.310   1.674 -0.4579  1.1793 -0.8706
 8614SOL    HW227284   0.474   5.360   1.532  0.4018 -0.5822 -1.4377
 8615SOL     OW27285   6.035   0.075   6.169 -0.5717 -0.2923 -0.3864
 8615SOL    HW127286   5.973   0.119   6.110 -1.4989 -0.2498  0.5780
 8615SOL    HW227287   6.121   0.095   6.133 -0.9535  2.1577 -0.1168
 8616SOL     OW27288   1.837   2.058  12.267 -0.1293 -0.0621 -0.0094
 8616SOL    HW127289   1.912   2.112  12.240  1.5614 -1.6961  1.2024
 8616SOL    HW227290   1.835   2.067  12.363 -0.5007 -1.2808  0.1034
 8617SOL     OW27291   3.572   6.934   6.740  0.2004  0.2339  0.4278
 8617SOL    HW127292   3.512   6.954   6.812 -2.0588 -0.2705 -1.2014
 8617SOL    HW227293   3.588   6.840   6.748 -1.5528 -0.2181 -0.6969
 8618SOL     OW27294   0.956   6.101   7.890 -0.5101 -0.2629  0.5087
 8618SOL    HW127295   0.978   6.142   7.974 -2.3186 -0.6312  1.2057
 8618SOL    HW227296   0.875   6.052   7.907 -0.2183 -1.4066 -1.1378
 8619SOL     OW27297   6.041   3.002   7.115 -0.1724 -0.8151 -0.3640
 8619SOL    HW127298   5.996   3.077   7.154  0.1178 -1.0424  0.4233
 8619SOL    HW227299   5.974   2.956   7.066 -0.5381 -0.5148 -0.1495
 8620SOL     OW27300   4.931   4.183   1.318 -0.2139  0.4057 -0.6737
 8620SOL    HW127301   4.912   4.201   1.226 -0.7919 -2.9920 -1.3555
 8620SOL    HW227302   5.023   4.208   1.329 -0.4416  1.9022 -1.8105
 8621SOL     OW27303   3.765   0.849   9.271 -0.1375 -0.5049  0.2867
 8621SOL    HW127304   3.734   0.878   9.185 -0.0667 -0.4719  0.2724
 8621SOL    HW227305   3.690   0.803   9.309 -0.4594  0.2556  0.5786
 8622SOL     OW27306   6.333   6.045   7.228 -0.4026 -0.4263  0.4239
 8622SOL    HW127307   6.319   5.957   7.193  1.8801 -0.3549 -0.8897
 8622SOL    HW227308   6.328   6.034   7.323 -1.6762 -1.6356  0.2602
 8623SOL     OW27309   4.907   4.993   2.995  0.2208 -0.7251  0.4762
 8623SOL    HW127310   4.856   5.067   2.961  0.7377 -0.2806  0.6586
 8623SOL    HW227311   4.909   5.006   3.090 -1.6732 -2.2565  0.7887
 8624SOL     OW27312   7.079   3.426   7.761  0.3795  0.4854 -0.3083
 8624SOL    HW127313   7.029   3.345   7.748  0.3920  0.3974  0.1749
 8624SOL    HW227314   7.021   3.481   7.813  0.2925  0.8678 -0.8053
 8625SOL     OW27315   0.010   2.895   6.072 -0.3548 -0.0562 -0.2011
 8625SOL    HW127316   0.059   2.889   5.990  0.1031 -1.2207  0.1496
 8625SOL    HW227317   0.069   2.938   6.133 -0.1971 -0.3995 -0.1098
 8626SOL     OW27318   6.302   6.038   0.079 -0.5199  0.3145  0.0257
 8626SOL    HW127319   6.291   6.107   0.144 -1.0139 -0.6236  0.9670
 8626SOL    HW227320   6.217   6.029   0.037 -1.5209 -2.0018  2.2875
 8627SOL     OW27321   7.971   5.955   4.405 -0.2409 -0.3418  0.1425
 8627SOL    HW127322   7.888   6.002   4.407 -0.5900 -0.9843  1.8211
 8627SOL    HW227323   8.031   6.015   4.360 -1.3158  0.5921 -0.0962
 8628SOL     OW27324   0.239   1.985   5.781  0.0538 -0.0796  0.0213
 8628SOL    HW127325   0.319   2.038   5.780  0.7059 -1.0518  0.4274
 8628SOL    HW227326   0.252   1.921   5.712 -0.9686  0.5922 -0.8339
 8629SOL     OW27327   7.905   5.872   7.084  0.4020 -0.2528 -0.1053
 8629SOL    HW127328   7.961   5.838   7.014 -0.1417  1.0697 -1.2221
 8629SOL    HW227329   7.964   5.888   7.157  1.4373  0.7534 -1.1303
 8630SOL     OW27330   1.549   4.749   1.442 -0.6642 -0.1697 -0.3026
 8630SOL    HW127331   1.559   4.839   1.471  1.0055 -0.3844 -0.1039
 8630SOL    HW227332   1.487   4.754   1.370  1.1632  1.5158 -1.8875
 8631SOL     OW27333   7.415   0.242   8.555 -0.0916 -0.0198 -0.1519
 8631SOL    HW127334   7.346   0.194   8.510  0.6489 -2.1683  0.8663
 8631SOL    HW227335   7.398   0.334   8.535 -3.9264 -0.3339  0.9965
 8632SOL     OW27336   0.961   5.110   1.653 -0.6194  0.8365  0.3878
 8632SOL    HW127337   0.868   5.118   1.673 -0.3319  2.2330  1.2604
 8632SOL    HW227338   0.984   5.192   1.609 -0.0629 -0.0087 -0.9804
 8633SOL     OW27339   3.538   1.447   3.782 -0.3951  0.6324  0.4168
 8633SOL    HW127340   3.526   1.496   3.701  0.7683 -0.6062 -0.5470
 8633SOL    HW227341   3.598   1.376   3.759 -0.3447  0.0120  2.2718
 8634SOL     OW27342   6.428   7.176   8.932 -0.1443 -0.0330  0.2538
 8634SOL    HW127343   6.333   7.184   8.927  0.0336  4.9891  0.4372
 8634SOL    HW227344   6.459   7.203   8.845  1.1368 -0.2236  0.6277
 8635SOL     OW27345   5.929   2.128  11.055 -0.4872  0.1086  0.6094
 8635SOL    HW127346   5.869   2.095  11.122 -1.9099  1.0751 -0.1552
 8635SOL    HW227347   6.012   2.139  11.102 -0.7728 -1.5923  1.5991
 8636SOL     OW27348   2.400   7.338   8.334 -0.0884 -0.0549 -0.4410
 8636SOL    HW127349   2.360   7.292   8.261  1.2479 -0.0496 -1.2099
 8636SOL    HW227350   2.441   7.269   8.386  0.3251  0.0885 -0.5745
 8637SOL     OW27351   0.374   7.739  12.088 -0.4796 -0.4252 -0.2531
 8637SOL    HW127352   0.345   7.744  12.179  1.3979 -0.9754  0.4266
 8637SOL    HW227353   0.394   7.646  12.075  0.0294 -0.2239 -0.9653
 8638SOL     OW27354   1.525   7.525   3.505  0.2294  0.3696  0.3888
 8638SOL    HW127355   1.536   7.572   3.587 -1.1631  0.2205  0.6891
 8638SOL    HW227356   1.507   7.593   3.440  0.3328  0.4121  0.4053
 8639SOL     OW27357   6.568   6.543   0.418  0.1365 -0.5852 -0.0590
 8639SOL    HW127358   6.501   6.485   0.454  0.5463  0.7001  3.0604
 8639SOL    HW227359   6.643   6.486   0.402  0.0188 -1.2259  1.4967
 8640SOL     OW27360   6.966   3.856   1.967  0.3883  0.3893 -0.6361
 8640SOL    HW127361   6.925   3.941   1.980  1.3747  0.7605  0.3134
 8640SOL    HW227362   6.896   3.792   1.983 -0.0165  1.0077  0.1560
 8641SOL     OW27363   4.319   2.229  11.007 -0.2035  0.1684  0.4015
 8641SOL    HW127364   4.303   2.236  10.913 -0.1568 -0.1195  0.3708
 8641SOL    HW227365   4.409   2.197  11.014 -1.0437 -2.4359  0.4709
 8642SOL     OW27366   5.282   7.840   9.261  0.1407 -0.0570  0.2689
 8642SOL    HW127367   5.224   7.778   9.306  0.0832  0.7261  1.3213
 8642SOL    HW227368   5.279   7.813   9.169 -1.5974 -0.2736  0.3555
 8643SOL     OW27369   2.374   0.417  11.845  0.5801  0.3522 -0.4041
 8643SOL    HW127370   2.462   0.454  11.833  0.9699  0.7943  2.8925
 8643SOL    HW227371   2.379   0.371  11.929 -2.0342 -0.6300 -0.7115
 8644SOL     OW27372   6.098   4.756   1.912 -0.1122  0.2256 -0.5115
 8644SOL    HW127373   6.053   4.774   1.829  0.4326  0.5418 -0.7438
 8644SOL    HW227374   6.122   4.842   1.946 -0.8678  0.1370  0.2857
 8645SOL     OW27375   3.069   2.216   7.765  0.2893  0.6853  0.1237
 8645SOL    HW127376   3.108   2.274   7.831  1.6513  2.4755 -2.0949
 8645SOL    HW227377   3.144   2.187   7.712 -0.8448  0.0500 -1.1801
 8646SOL     OW27378   6.516   7.444   2.258 -0.2716  0.0616  0.1865
 8646SOL    HW127379   6.548   7.421   2.170 -0.1858 -0.4872  0.3603
 8646SOL    HW227380   6.542   7.371   2.313 -1.5772 -0.2746  0.3885
 8647SOL     OW27381   2.519   0.818   1.642  0.1035  0.0505 -0.3553
 8647SOL    HW127382   2.447   0.758   1.657 -0.9551  0.4435 -3.3200
 8647SOL    HW227383   2.596   0.772   1.675 -1.0005 -1.8812 -0.3306
 8648SOL     OW27384   5.317   1.907   2.542  0.0436 -0.4263 -0.3954
 8648SOL    HW127385   5.309   1.972   2.473  3.4431  0.7633  0.1746
 8648SOL    HW227386   5.263   1.834   2.512 -0.9049  1.1592 -2.8582
 8649SOL     OW27387   1.199   0.527  10.978  0.3481 -0.1296  0.0907
 8649SOL    HW127388   1.273   0.584  10.997  0.2982  0.4166 -1.2236
 8649SOL    HW227389   1.122   0.585  10.980  0.1554 -0.3731 -0.1091
 8650SOL     OW27390   1.019   6.719   8.741  0.6842  0.2560  0.1196
 8650SOL    HW127391   1.071   6.650   8.782  1.0615 -0.1869 -1.0735
 8650SOL    HW227392   0.950   6.739   8.805  1.3149 -0.3408  0.9989
 8651SOL     OW27393   2.340   3.789   9.689 -0.3338 -0.0210  0.2080
 8651SOL    HW127394   2.414   3.741   9.653  0.5326 -0.1008  1.9794
 8651SOL    HW227395   2.266   3.728   9.683  0.0835 -0.4893 -0.2180
 8652SOL     OW27396   1.980   3.933   9.649 -0.6579 -0.4273 -0.1441
 8652SOL    HW127397   2.025   3.914   9.566  0.2697 -1.7404  0.6337
 8652SOL    HW227398   2.033   4.000   9.691 -0.6969 -0.3274 -0.2534
 8653SOL     OW27399   5.095   5.307   0.202 -0.9213 -0.0612 -0.7090
 8653SOL    HW127400   5.016   5.302   0.256  0.2280 -0.0399  1.0709
 8653SOL    HW227401   5.091   5.393   0.161  0.4678  2.2030  3.3133
 8654SOL     OW27402   0.611   2.306   4.732  0.0687  0.2003 -0.0794
 8654SOL    HW127403   0.602   2.340   4.643  0.5966  1.7994  0.4435
 8654SOL    HW227404   0.653   2.221   4.721 -1.5817 -0.5047 -1.4639
 8655SOL     OW27405   6.278   1.585   9.275 -0.2922 -0.4843  0.2311
 8655SOL    HW127406   6.184   1.599   9.265 -0.6627 -1.4603  2.0144
 8655SOL    HW227407   6.310   1.568   9.186 -1.6198  0.7653 -0.5197
 8656SOL     OW27408   4.807   0.406   8.972 -0.0948  0.3438  0.0519
 8656SOL    HW127409   4.827   0.326   9.021 -0.0759 -0.5032 -1.2878
 8656SOL    HW227410   4.851   0.475   9.020  0.7583 -0.6006  0.6748
 8657SOL     OW27411   0.334   4.766   2.576  0.8372 -0.3939  0.8384
 8657SOL    HW127412   0.340   4.671   2.588 -0.5946 -0.5973  0.0805
 8657SOL    HW227413   0.393   4.784   2.503 -0.2460 -0.9740 -0.2040
 8658SOL     OW27414   2.919   2.698   3.606  0.2445 -0.3093 -0.1308
 8658SOL    HW127415   2.904   2.773   3.548  0.3308 -0.9154 -0.9558
 8658SOL    HW227416   3.013   2.698   3.622  0.0216  0.8790  1.4503
 8659SOL     OW27417   2.898   5.097   0.494  0.0461 -0.2781 -0.4406
 8659SOL    HW127418   2.856   5.013   0.476 -1.4997  0.2672  0.4549
 8659SOL    HW227419   2.901   5.102   0.589  2.6129 -0.4873 -0.4540
 8660SOL     OW27420   6.541   3.169   5.907  0.6485  0.3995 -0.4245
 8660SOL    HW127421   6.616   3.155   5.965  1.0682 -0.3599 -1.1429
 8660SOL    HW227422   6.474   3.207   5.964  0.9445 -0.6101  0.6397
 8661SOL     OW27423   4.995   0.973   5.692 -0.3427 -0.1142 -0.0659
 8661SOL    HW127424   5.076   0.978   5.743 -0.2461  0.1534 -0.2421
 8661SOL    HW227425   4.995   1.053   5.640 -0.6529 -0.1820 -0.1702
 8662SOL     OW27426   4.000   5.208   0.855  0.2363  0.2723  0.0450
 8662SOL    HW127427   4.030   5.166   0.936 -1.9922  0.5929  1.1090
 8662SOL    HW227428   3.910   5.234   0.874  0.1731  1.7668 -2.0329
 8663SOL     OW27429   4.405   1.463   7.505  0.5936  0.0059 -0.4051
 8663SOL    HW127430   4.455   1.507   7.436  1.7715  0.6177  0.7913
 8663SOL    HW227431   4.387   1.532   7.569 -0.2936 -0.5965  0.0220
 8664SOL     OW27432   0.615   2.736   4.794 -0.2309  0.0369 -0.3078
 8664SOL    HW127433   0.595   2.828   4.812 -2.6546 -0.8152  1.9844
 8664SOL    HW227434   0.574   2.720   4.709 -0.6564  0.8406 -0.2681
 8665SOL     OW27435   5.451   0.739   6.905  0.2563  0.1178 -0.2461
 8665SOL    HW127436   5.375   0.771   6.856  0.7077  0.3001 -0.8517
 8665SOL    HW227437   5.484   0.815   6.952  1.1596  0.5184 -1.4610
 8666SOL     OW27438   5.599   3.012   9.445  0.1693  0.0344  0.2131
 8666SOL    HW127439   5.651   2.957   9.386 -0.7388 -0.6740  0.0480
 8666SOL    HW227440   5.510   2.979   9.435 -0.2757  1.0762  0.6644
 8667SOL     OW27441   4.233   4.036   2.947  0.0345 -0.2918 -0.0146
 8667SOL    HW127442   4.312   3.992   2.978  0.5688 -0.4275 -1.5025
 8667SOL    HW227443   4.220   4.003   2.858 -0.4180  1.3853 -0.6115
 8668SOL     OW27444   5.417   6.428  12.069  0.0110  0.0096 -0.0077
 8668SOL    HW127445   5.478   6.374  12.119 -0.2515 -0.4025 -0.1179
 8668SOL    HW227446   5.362   6.470  12.136 -0.9668 -1.2841  0.0631
 8669SOL     OW27447   7.001   1.032   5.038 -0.3617 -0.1306 -0.2055
 8669SOL    HW127448   7.057   0.986   4.974 -0.5678 -0.6390 -0.0268
 8669SOL    HW227449   7.048   1.113   5.057  0.5666 -0.7653  0.2988
 8670SOL     OW27450   5.630   7.063   7.925 -0.3828 -0.1923 -0.6966
 8670SOL    HW127451   5.721   7.058   7.895 -0.5968 -0.0653 -1.3865
 8670SOL    HW227452   5.587   7.120   7.861 -1.2592 -1.3147 -1.1392
 8671SOL     OW27453   2.365   3.273   2.403 -0.2125 -0.1883 -0.7020
 8671SOL    HW127454   2.385   3.353   2.355 -1.6421  2.1723  2.2531
 8671SOL    HW227455   2.290   3.236   2.356 -0.9935  1.5116 -0.9049
 8672SOL     OW27456   6.574   2.952   6.400  0.1890 -0.5531  0.4755
 8672SOL    HW127457   6.626   3.010   6.344 -1.8291  2.6235  1.6266
 8672SOL    HW227458   6.513   2.909   6.340  0.2666  0.2256 -0.1804
 8673SOL     OW27459   2.356   1.987  11.189  0.2453  0.2205  0.3840
 8673SOL    HW127460   2.427   1.929  11.214 -0.3942 -0.1572  1.3745
 8673SOL    HW227461   2.362   2.061  11.249  0.8217  1.0279 -0.6254
 8674SOL     OW27462   2.266   0.701   1.668  0.2275  0.3097  0.1539
 8674SOL    HW127463   2.216   0.699   1.586 -0.4194 -6.3602  0.1402
 8674SOL    HW227464   2.203   0.730   1.734 -0.9172  0.6164 -1.0339
 8675SOL     OW27465   3.810   5.262  10.569 -0.3885  0.0445 -0.1701
 8675SOL    HW127466   3.894   5.282  10.611 -0.7787 -1.4570  1.4572
 8675SOL    HW227467   3.767   5.347  10.560  1.6217  0.9716 -1.9007
 8676SOL     OW27468   7.690   0.699   5.519  0.3354 -0.4491 -0.3648
 8676SOL    HW127469   7.679   0.741   5.434 -0.7763 -0.7900 -0.4132
 8676SOL    HW227470   7.711   0.608   5.499  1.3669 -0.2416 -0.2627
 8677SOL     OW27471   3.531   1.309   6.770  0.0521  0.3604 -0.2347
 8677SOL    HW127472   3.535   1.276   6.860  0.2406  0.0880 -0.3427
 8677SOL    HW227473   3.562   1.400   6.776  0.8678  0.0775 -0.1595
 8678SOL     OW27474   3.280   7.945   3.793 -0.0344  0.3925 -0.4742
 8678SOL    HW127475   3.251   7.885   3.724 -0.3840 -1.9234  1.5271
 8678SOL    HW227476   3.200   7.966   3.841  0.0513  2.7255 -1.2266
 8679SOL     OW27477   7.734   5.808   2.689  0.0062 -0.5884  0.6778
 8679SOL    HW127478   7.736   5.724   2.643  0.3279 -1.8601  2.8586
 8679SOL    HW227479   7.784   5.867   2.633 -0.1308 -1.8634 -0.8667
 8680SOL     OW27480   0.158   1.606   8.755 -0.0800 -0.4294 -0.4713
 8680SOL    HW127481   0.065   1.609   8.776  0.0881  0.4828  0.2690
 8680SOL    HW227482   0.182   1.698   8.744  0.6628 -0.6791 -0.9967
 8681SOL     OW27483   2.627   1.113   0.728 -0.2035  0.2470  0.0803
 8681SOL    HW127484   2.542   1.076   0.706 -0.3561 -0.4592  1.7224
 8681SOL    HW227485   2.607   1.198   0.767 -0.1628  0.0632  0.5044
 8682SOL     OW27486   4.298   0.301   6.041  0.2269 -0.1524 -0.2994
 8682SOL    HW127487   4.242   0.268   5.970 -0.9305 -0.7135  0.8464
 8682SOL    HW227488   4.382   0.320   5.998 -0.7614  0.5355 -2.0247
 8683SOL     OW27489   5.936   3.418   3.742 -0.2617  0.4123  0.0770
 8683SOL    HW127490   6.026   3.398   3.767 -0.0379 -1.2971 -1.8405
 8683SOL    HW227491   5.940   3.504   3.701  1.3316 -1.1801 -3.5018
 8684SOL     OW27492   5.938   3.886  11.368 -0.2684 -0.4687  0.7186
 8684SOL    HW127493   5.847   3.912  11.353  0.1755  0.5482 -0.3690
 8684SOL    HW227494   5.975   3.876  11.280  0.9785  0.3338  1.1219
 8685SOL     OW27495   2.902   6.978   8.713 -0.1286 -0.1912 -0.7259
 8685SOL    HW127496   2.973   6.957   8.652  1.0577 -0.5024  0.6992
 8685SOL    HW227497   2.911   7.072   8.728  2.2365 -0.7178  2.0233
 8686SOL     OW27498   2.674   7.664   5.236 -0.3858 -0.0723 -0.0760
 8686SOL    HW127499   2.647   7.594   5.177 -0.2595  0.3575 -0.6525
 8686SOL    HW227500   2.605   7.731   5.227 -0.3366  0.0196  0.2207
 8687SOL     OW27501   2.922   7.786   5.054 -0.0090  0.2790  0.1470
 8687SOL    HW127502   2.860   7.840   5.103  0.8326  0.9809  0.4620
 8687SOL    HW227503   2.872   7.752   4.980 -0.8031  0.7132  0.4797
 8688SOL     OW27504   5.973   1.134  11.372 -0.4557  0.4039  0.8374
 8688SOL    HW127505   5.977   1.125  11.467 -0.4603 -1.0764  0.7151
 8688SOL    HW227506   6.026   1.211  11.353  0.4712  0.0603  1.9499
 8689SOL     OW27507   5.846   0.782   9.547 -0.3411  0.3446  0.2394
 8689SOL    HW127508   5.903   0.848   9.509 -0.0758 -0.6726 -1.2083
 8689SOL    HW227509   5.903   0.728   9.602 -0.4859  1.0328  1.1011
 8690SOL     OW27510   4.138   7.004   2.830  0.1212 -0.3558 -0.1410
 8690SOL    HW127511   4.147   7.036   2.920 -0.8614 -0.4910  0.0113
 8690SOL    HW227512   4.104   7.078   2.781  0.4146 -0.3596 -0.3554
 8691SOL     OW27513   1.791   6.390   3.976  0.5429  0.7143  0.1360
 8691SOL    HW127514   1.869   6.421   3.930  0.3309  0.3893 -0.4571
 8691SOL    HW227515   1.768   6.308   3.932 -1.4880  1.9269 -1.2714
 8692SOL     OW27516   3.983   0.942   7.394 -0.1533  0.2697  0.8460
 8692SOL    HW127517   3.926   1.012   7.363  0.1885 -0.3772 -1.4136
 8692SOL    HW227518   3.930   0.895   7.458 -2.3427 -0.4512 -1.3100
 8693SOL     OW27519   2.067   1.301   9.081  0.1042 -0.3728  0.3958
 8693SOL    HW127520   1.986   1.300   9.134  0.5403 -0.6608  1.0797
 8693SOL    HW227521   2.135   1.326   9.143  0.1902  2.6377 -0.7665
 8694SOL     OW27522   3.606   7.930  10.083 -0.5963 -0.3547 -0.0893
 8694SOL    HW127523   3.684   7.926  10.139 -1.9051 -0.8319  1.7651
 8694SOL    HW227524   3.639   7.967  10.000  2.0232 -2.5088 -0.1664
 8695SOL     OW27525   0.615   1.391   0.844 -0.4824 -0.3161  0.6431
 8695SOL    HW127526   0.629   1.298   0.824 -0.5218 -0.1773 -0.0567
 8695SOL    HW227527   0.662   1.438   0.775 -0.1171  0.1950  1.2278
 8696SOL     OW27528   0.478   6.126  10.731 -0.3062 -0.4892 -0.5349
 8696SOL    HW127529   0.531   6.205  10.722 -0.5077 -0.3782 -0.7662
 8696SOL    HW227530   0.437   6.115  10.645 -1.8417  0.2863  0.0440
 8697SOL     OW27531   1.196   5.920   5.277 -0.1070  0.7962  0.2111
 8697SOL    HW127532   1.122   5.926   5.216 -0.4469 -1.1304  0.3735
 8697SOL    HW227533   1.158   5.938   5.363 -0.2692  0.4566  0.2134
 8698SOL     OW27534   2.896   0.113   7.087  0.1099  0.6549 -0.0268
 8698SOL    HW127535   2.887   0.138   6.994  0.1841  0.3416 -0.1186
 8698SOL    HW227536   2.914   0.196   7.132  0.5234  0.7465 -0.3529
 8699SOL     OW27537   2.420   4.205   5.081  0.0464  0.3111  0.3900
 8699SOL    HW127538   2.375   4.264   5.019  2.0323 -0.4649 -1.9751
 8699SOL    HW227539   2.478   4.263   5.130 -0.3348  0.7342  0.3554
 8700SOL     OW27540   7.076   7.945   2.888  0.3368 -0.3522 -0.5598
 8700SOL    HW127541   7.063   7.945   2.793  2.1173 -0.4076 -0.8346
 8700SOL    HW227542   7.075   8.037   2.912 -1.4804 -0.3770 -0.3847
 8701SOL     OW27543   2.039   0.303   3.227 -0.1492 -0.6092  0.0698
 8701SOL    HW127544   1.959   0.256   3.250 -0.7471 -0.1396 -0.9737
 8701SOL    HW227545   2.033   0.385   3.277 -2.0300  0.9467 -2.4282
 8702SOL     OW27546   5.615   0.311   0.521 -0.5541 -0.5751 -0.0550
 8702SOL    HW127547   5.595   0.358   0.440  0.5203  0.5259  0.3011
 8702SOL    HW227548   5.577   0.365   0.590 -1.6390 -1.6098  0.2007
 8703SOL     OW27549   0.920   5.498   6.820 -0.2914 -0.1206 -0.3513
 8703SOL    HW127550   0.850   5.548   6.779 -1.2674 -0.0290  1.3184
 8703SOL    HW227551   1.000   5.546   6.796 -1.1027  1.6824  0.3256
 8704SOL     OW27552   5.616   7.422   3.485  0.5923  0.6656  0.5209
 8704SOL    HW127553   5.648   7.343   3.442 -0.6599 -0.6036  1.7887
 8704SOL    HW227554   5.554   7.459   3.422 -1.1369 -1.1022  1.0652
 8705SOL     OW27555   0.584   2.471   6.559  0.2846  0.1225 -0.0589
 8705SOL    HW127556   0.650   2.410   6.594  1.9699  2.3984  1.0292
 8705SOL    HW227557   0.507   2.457   6.614  1.0599 -0.1987  0.9798
 8706SOL     OW27558   4.352   6.904   5.494  0.2511 -0.0101 -0.9124
 8706SOL    HW127559   4.317   6.958   5.564  0.0796  0.8093 -1.6184
 8706SOL    HW227560   4.286   6.835   5.481  0.7269 -0.7348  0.3550
 8707SOL     OW27561   6.443   1.702  11.103  0.3152 -0.6484 -0.1041
 8707SOL    HW127562   6.360   1.694  11.149 -0.5410 -1.1809 -1.6698
 8707SOL    HW227563   6.492   1.768  11.152  0.2413 -2.4692  2.6418
 8708SOL     OW27564   1.046   3.868   6.803  0.9614  0.3983  0.2664
 8708SOL    HW127565   1.040   3.792   6.861 -0.0795 -0.1174 -0.4813
 8708SOL    HW227566   1.027   3.943   6.860  1.0705  0.0160  0.8168
 8709SOL     OW27567   5.154   0.960   6.214  0.7927 -0.5865 -0.1589
 8709SOL    HW127568   5.246   0.933   6.209  0.7213 -0.6389 -2.1181
 8709SOL    HW227569   5.111   0.887   6.259  1.5165 -1.1496 -0.3451
 8710SOL     OW27570   2.281   3.616  12.146  0.0621 -0.6264  0.0591
 8710SOL    HW127571   2.212   3.552  12.162 -0.7072  0.5895  1.8419
 8710SOL    HW227572   2.234   3.698  12.129  1.0461 -0.0259  0.1695
 8711SOL     OW27573   2.759   7.496   8.718 -0.3943  0.4181 -0.0117
 8711SOL    HW127574   2.663   7.499   8.712 -0.2953  1.4654 -2.6243
 8711SOL    HW227575   2.778   7.503   8.811 -2.8486  2.6316  0.4298
 8712SOL     OW27576   0.036   7.716  12.275 -0.3606  0.1367 -0.3623
 8712SOL    HW127577   0.130   7.716  12.295 -0.4473  2.4111  0.3806
 8712SOL    HW227578   0.011   7.624  12.274  1.4945 -0.4497  1.3178
 8713SOL     OW27579   6.648   6.312  11.059  0.4555  0.0854  0.2257
 8713SOL    HW127580   6.619   6.400  11.034 -0.2181 -0.5815 -1.4763
 8713SOL    HW227581   6.740   6.310  11.033  0.2598  0.0365 -0.4876
 8714SOL     OW27582   1.647   1.194   5.767  0.2981 -0.3797 -0.1613
 8714SOL    HW127583   1.632   1.276   5.720  0.1776  0.3654  1.1099
 8714SOL    HW227584   1.740   1.176   5.754 -0.2129 -1.5566 -2.7250
 8715SOL     OW27585   6.658   2.462   2.653  0.0753 -0.4202  0.6412
 8715SOL    HW127586   6.751   2.487   2.652 -0.6340  2.6007  0.5892
 8715SOL    HW227587   6.649   2.400   2.581  2.1747 -1.5011  1.2071
 8716SOL     OW27588   2.406   0.335   1.975 -0.5271  0.1107 -0.1524
 8716SOL    HW127589   2.342   0.298   2.036 -1.2092  2.7269  0.8670
 8716SOL    HW227590   2.422   0.265   1.912 -2.1258 -1.6636  1.2763
 8717SOL     OW27591   5.149   5.545   8.291 -1.0702  0.0328 -0.0172
 8717SOL    HW127592   5.094   5.621   8.309 -0.9131 -0.0088  0.6712
 8717SOL    HW227593   5.230   5.563   8.339 -0.5922 -0.0428 -0.7764
 8718SOL     OW27594   4.047   4.382   5.556  0.0048 -0.9163 -0.1056
 8718SOL    HW127595   3.967   4.391   5.503  0.7511 -0.2506 -1.1642
 8718SOL    HW227596   4.017   4.345   5.639 -1.4314 -0.4915 -0.4081
 8719SOL     OW27597   7.260   1.929   7.869 -0.3906  0.0592 -0.5124
 8719SOL    HW127598   7.187   1.874   7.841  0.4511 -0.6151 -1.4699
 8719SOL    HW227599   7.237   2.017   7.839 -1.8615  0.3453  1.2431
 8720SOL     OW27600   5.243   1.259  10.135 -0.2219  0.4678  0.0559
 8720SOL    HW127601   5.310   1.244  10.202  0.5059 -0.1017 -0.7885
 8720SOL    HW227602   5.235   1.354  10.130  1.4116  0.5918 -0.6845
 8721SOL     OW27603   6.558   0.802   2.378 -0.0043  0.5456 -0.5718
 8721SOL    HW127604   6.631   0.742   2.392 -0.3300  0.5124  1.2110
 8721SOL    HW227605   6.565   0.865   2.450 -0.8785  1.4300 -1.2308
 8722SOL     OW27606   6.157   2.013   1.464  0.0243 -0.4111  0.1757
 8722SOL    HW127607   6.213   2.001   1.541 -0.1698  1.8117  0.7282
 8722SOL    HW227608   6.111   1.929   1.455  0.8108 -1.0813  1.8555
 8723SOL     OW27609   6.116   6.199   3.090  0.2791 -0.0999 -0.0770
 8723SOL    HW127610   6.142   6.288   3.117  0.0527 -0.1820  0.4301
 8723SOL    HW227611   6.079   6.211   3.003 -0.1726  0.3819  0.1698
 8724SOL     OW27612   5.768   2.160   2.608  0.6166  0.4782 -0.1582
 8724SOL    HW127613   5.797   2.077   2.570  1.6194  0.5245  0.4613
 8724SOL    HW227614   5.673   2.156   2.603  0.6470 -0.6466 -0.2763
 8725SOL     OW27615   0.081   4.951   7.939 -1.0329  0.4552 -0.0739
 8725SOL    HW127616   0.151   4.992   7.889 -1.2228  0.7434 -0.1054
 8725SOL    HW227617   0.060   4.872   7.889  1.1127 -1.1137  1.3420
 8726SOL     OW27618   6.114   2.243   9.255  0.1356  0.2526  0.7671
 8726SOL    HW127619   6.117   2.287   9.170 -1.6235 -1.1421 -0.0914
 8726SOL    HW227620   6.028   2.266   9.291  0.8001  0.7087  2.1276
 8727SOL     OW27621   4.247   4.580   9.142  0.0823  0.1439 -0.0337
 8727SOL    HW127622   4.157   4.548   9.139  0.1059 -0.1781  1.7711
 8727SOL    HW227623   4.253   4.639   9.067 -0.8146 -1.8453 -1.7753
 8728SOL     OW27624   0.525   7.737   0.745  0.3387 -0.2197 -0.1162
 8728SOL    HW127625   0.508   7.818   0.697 -2.1643 -0.9721 -0.6500
 8728SOL    HW227626   0.590   7.761   0.811  1.5166  1.5976 -1.8208
 8729SOL     OW27627   5.309   2.365   6.130  0.2846  0.1786 -0.3335
 8729SOL    HW127628   5.252   2.439   6.152  1.0555  0.1504  2.1030
 8729SOL    HW227629   5.253   2.288   6.142  0.3283  0.2370  0.2920
 8730SOL     OW27630   7.156   4.201   5.079  0.1943 -1.2917  0.2359
 8730SOL    HW127631   7.248   4.221   5.062  0.0048 -0.5213  0.0984
 8730SOL    HW227632   7.136   4.246   5.161 -0.2053 -1.0039 -0.0137
 8731SOL     OW27633   2.583   1.882   6.067 -0.4745  0.0209 -0.2329
 8731SOL    HW127634   2.636   1.957   6.095 -0.9644  0.3575 -0.1767
 8731SOL    HW227635   2.534   1.915   5.992  1.6849 -1.2092 -2.3201
 8732SOL     OW27636   2.047   1.973   2.142  0.2533 -0.5749 -0.4948
 8732SOL    HW127637   2.020   1.951   2.053 -0.2502 -0.4123 -0.3870
 8732SOL    HW227638   1.965   1.982   2.191  0.4504  0.8524 -0.3714
 8733SOL     OW27639   3.840   2.785  11.053  0.1927  0.3009 -0.6896
 8733SOL    HW127640   3.749   2.763  11.072  1.1769 -1.0530  3.3482
 8733SOL    HW227641   3.882   2.701  11.032  1.1061  0.4006  0.6288
 8734SOL     OW27642   3.284   7.814  11.863  0.2779 -0.2079  0.6879
 8734SOL    HW127643   3.330   7.734  11.891 -0.2933 -0.5598  0.6393
 8734SOL    HW227644   3.321   7.833  11.777  0.2676 -0.5399  0.6084
 8735SOL     OW27645   7.678   3.035   3.233  0.5393  0.1396 -0.0995
 8735SOL    HW127646   7.621   3.052   3.158  1.3687 -0.1032 -0.8007
 8735SOL    HW227647   7.623   3.051   3.310 -0.4493 -0.0347 -0.7580
 8736SOL     OW27648   0.833   2.375   7.104 -0.0945  0.2671  0.6814
 8736SOL    HW127649   0.794   2.434   7.169  0.1924  0.6083  0.5444
 8736SOL    HW227650   0.927   2.380   7.121  0.3251  2.6533 -1.6274
 8737SOL     OW27651   1.685   7.614   1.076 -0.4889  0.7083  0.0805
 8737SOL    HW127652   1.603   7.580   1.040  0.2073 -0.9261 -0.0715
 8737SOL    HW227653   1.750   7.598   1.007  0.1584  0.9738  0.6197
 8738SOL     OW27654   5.773   3.637   2.280  0.0219  0.1443  0.5608
 8738SOL    HW127655   5.810   3.709   2.332  0.6466 -0.5139  1.0534
 8738SOL    HW227656   5.846   3.605   2.228 -0.9653  1.9010 -2.1086
 8739SOL     OW27657   4.816   2.948   7.358  0.4526  0.0406 -0.3620
 8739SOL    HW127658   4.726   2.917   7.370 -0.6415  3.1445  0.2504
 8739SOL    HW227659   4.868   2.892   7.416 -1.2778 -0.9037  0.3637
 8740SOL     OW27660   2.315   0.102   6.887  0.0478  0.1783  0.0310
 8740SOL    HW127661   2.310   0.150   6.970 -1.9221 -1.0779  0.7090
 8740SOL    HW227662   2.364   0.160   6.829 -0.4833  2.1070  1.3926
 8741SOL     OW27663   2.495   1.218   8.981  0.0483 -0.2506  0.7732
 8741SOL    HW127664   2.502   1.138   9.033  1.4877 -0.6029  0.1182
 8741SOL    HW227665   2.483   1.187   8.891  2.8261  0.1283  0.1793
 8742SOL     OW27666   2.233   4.517   7.005 -0.9551  0.2204 -0.3603
 8742SOL    HW127667   2.257   4.504   6.913 -1.2044  0.5201 -0.4718
 8742SOL    HW227668   2.208   4.430   7.036  0.4752 -0.1485 -0.1695
 8743SOL     OW27669   0.209   7.778   1.112  0.1394 -0.1226 -0.4616
 8743SOL    HW127670   0.172   7.725   1.041  0.7813 -0.6431 -0.4173
 8743SOL    HW227671   0.139   7.839   1.135 -0.0683  0.0806 -1.5655
 8744SOL     OW27672   7.442   4.906   0.288 -0.1651 -0.9440  0.4112
 8744SOL    HW127673   7.505   4.967   0.251 -1.5101  0.7279  0.7190
 8744SOL    HW227674   7.444   4.831   0.230  1.7305 -0.7449  0.1592
 8745SOL     OW27675   2.849   5.638   8.140 -0.4960 -0.3071 -0.0690
 8745SOL    HW127676   2.778   5.594   8.093  0.8201 -0.7150 -1.7936
 8745SOL    HW227677   2.864   5.583   8.217 -0.1349 -1.8903 -1.2097
 8746SOL     OW27678   1.236   3.677   0.359 -0.5536 -0.7733  0.3254
 8746SOL    HW127679   1.285   3.669   0.442 -0.2247 -2.1717  0.0207
 8746SOL    HW227680   1.219   3.770   0.351  0.1965 -0.5031  1.5293
 8747SOL     OW27681   1.441   3.772  10.982 -0.1360 -0.2624 -1.1582
 8747SOL    HW127682   1.408   3.841  11.039  0.5348 -1.8791  1.3400
 8747SOL    HW227683   1.502   3.816  10.923 -1.9692  1.7105 -1.6809
 8748SOL     OW27684   3.022   4.985   7.072  0.0137 -0.2692 -0.0885
 8748SOL    HW127685   2.944   5.012   7.024  0.4815  1.1717 -0.0676
 8748SOL    HW227686   3.040   5.057   7.132  1.1437 -0.7489  0.1742
 8749SOL     OW27687   1.852   7.188   5.946  0.3518  0.9149  0.0648
 8749SOL    HW127688   1.775   7.245   5.951 -0.4670 -0.2523  1.5685
 8749SOL    HW227689   1.883   7.182   6.036  0.3045 -1.1109 -0.0146
 8750SOL     OW27690   2.100   5.773   1.694  0.3527 -0.3360  0.3367
 8750SOL    HW127691   2.032   5.826   1.653  0.8911 -0.0191 -0.1506
 8750SOL    HW227692   2.174   5.776   1.633  1.0372 -0.1542  1.1512
 8751SOL     OW27693   4.761   7.448   1.537 -0.1478  0.2453  0.0722
 8751SOL    HW127694   4.777   7.530   1.490 -0.7965  0.0433 -0.5050
 8751SOL    HW227695   4.847   7.407   1.543  0.4439  1.6094  1.5987
 8752SOL     OW27696   4.213   6.289   4.062  0.2084  0.3449 -0.6301
 8752SOL    HW127697   4.207   6.338   4.144  0.1369 -1.9859  0.8297
 8752SOL    HW227698   4.123   6.290   4.028  0.1715  1.0472 -0.5361
 8753SOL     OW27699   0.187   7.129   8.617 -0.4492 -0.1727  0.1681
 8753SOL    HW127700   0.205   7.217   8.649  0.8992  0.0551 -1.1257
 8753SOL    HW227701   0.198   7.135   8.522  1.3468 -2.0873  0.1863
 8754SOL     OW27702   6.228   4.987   5.812 -0.5079  0.0020  0.2841
 8754SOL    HW127703   6.321   4.990   5.836 -0.3942  1.6628 -0.2512
 8754SOL    HW227704   6.216   4.900   5.774  1.3782  0.5014 -1.6904
 8755SOL     OW27705   0.259   7.019   7.426  0.0454  0.1661 -0.3102
 8755SOL    HW127706   0.348   7.054   7.424 -0.3100  1.1249 -2.4623
 8755SOL    HW227707   0.205   7.087   7.386 -1.1876 -1.4788 -1.6284
 8756SOL     OW27708   0.003   2.848   0.652 -0.0770  0.1101  0.0143
 8756SOL    HW127709  -0.063   2.916   0.636 -0.9313 -0.9157 -1.0439
 8756SOL    HW227710   0.013   2.846   0.747 -0.5591  1.2225  0.1019
 8757SOL     OW27711   1.453   3.664   2.679  0.2679  0.3139  0.0968
 8757SOL    HW127712   1.475   3.654   2.772  1.6339  0.5433 -0.1828
 8757SOL    HW227713   1.380   3.604   2.666 -0.8473  1.2712  1.6220
 8758SOL     OW27714   1.912   4.171   0.960  0.2248  0.7891 -0.2220
 8758SOL    HW127715   1.944   4.238   0.899 -0.1019  1.1936  0.0443
 8758SOL    HW227716   1.904   4.218   1.044  1.1044  0.1340  0.2452
 8759SOL     OW27717   3.213   2.443  11.064  0.2372 -0.2427  0.2433
 8759SOL    HW127718   3.225   2.513  11.127 -0.6653  0.2467 -0.0993
 8759SOL    HW227719   3.271   2.466  10.991  0.0569  0.0719  0.1971
 8760SOL     OW27720   5.565   5.347   0.373 -0.5591  0.5546 -0.2140
 8760SOL    HW127721   5.602   5.302   0.297 -2.4934 -1.0196 -0.3088
 8760SOL    HW227722   5.630   5.334   0.442  0.2998  0.2372 -1.0632
 8761SOL     OW27723   3.022   6.568   5.882  0.1405  0.0211 -0.3231
 8761SOL    HW127724   3.041   6.488   5.932  1.0575 -0.6572 -1.7113
 8761SOL    HW227725   2.985   6.536   5.800  0.5414  1.0269 -0.9045
 8762SOL     OW27726   6.142   6.668  12.467 -0.0420  0.0450 -0.4156
 8762SOL    HW127727   6.230   6.670  12.505  0.2128  0.3572 -1.0116
 8762SOL    HW227728   6.133   6.580  12.431 -0.6695 -0.6022  1.2362
 8763SOL     OW27729   1.484   3.716   1.588  0.8183 -0.7382  0.3260
 8763SOL    HW127730   1.505   3.803   1.620  1.8721 -0.2435 -1.5477
 8763SOL    HW227731   1.504   3.657   1.661 -0.5083  0.5877  1.8350
 8764SOL     OW27732   0.555   4.631   9.526 -0.0694 -0.3145  0.0845
 8764SOL    HW127733   0.618   4.653   9.457  0.4443 -0.3049  0.5526
 8764SOL    HW227734   0.500   4.709   9.534 -1.8108 -1.2172 -2.0908
 8765SOL     OW27735   6.294   1.009  10.991 -0.1467  0.2893  0.1612
 8765SOL    HW127736   6.231   0.949  11.031  0.2316 -0.2905 -0.0941
 8765SOL    HW227737   6.258   1.028  10.905  0.5603 -0.9432 -0.4379
 8766SOL     OW27738   2.145   1.381   3.576  0.4336 -0.0669 -0.2434
 8766SOL    HW127739   2.172   1.469   3.550  0.4677 -0.0996 -0.3169
 8766SOL    HW227740   2.171   1.325   3.503 -1.2117  0.1207 -1.0228
 8767SOL     OW27741   0.243   5.705   6.157 -0.4442  0.3357  0.2846
 8767SOL    HW127742   0.192   5.642   6.206  0.1398  0.4169  1.0149
 8767SOL    HW227743   0.297   5.749   6.222 -0.3148  1.0882 -0.3070
 8768SOL     OW27744   1.954   1.929   4.327  0.3595  0.2710  0.6144
 8768SOL    HW127745   1.935   1.880   4.246  0.6062  0.6116  0.3485
 8768SOL    HW227746   1.969   1.861   4.393 -1.5669 -0.0412  0.7941
 8769SOL     OW27747   0.168   5.182   9.661  0.4744 -0.4729  0.2120
 8769SOL    HW127748   0.260   5.156   9.667  0.4100 -0.7031  0.2205
 8769SOL    HW227749   0.119   5.106   9.694  0.3087 -0.1011  0.8401
 8770SOL     OW27750   3.448   7.427   6.665 -0.0093  0.0135  0.1272
 8770SOL    HW127751   3.480   7.387   6.585  1.2475 -0.1318  0.6780
 8770SOL    HW227752   3.361   7.389   6.678 -0.0659 -0.2601 -0.9362
 8771SOL     OW27753   4.213   7.009   9.540 -0.2090  0.0099  0.5063
 8771SOL    HW127754   4.220   6.941   9.474 -1.2240 -0.2303  0.6326
 8771SOL    HW227755   4.137   7.061   9.514 -0.2012  0.3296  1.0901
 8772SOL     OW27756   2.701   6.608  10.909 -0.3152 -0.9183 -0.2286
 8772SOL    HW127757   2.709   6.526  10.860 -1.1761 -0.1977 -1.6653
 8772SOL    HW227758   2.607   6.625  10.913 -0.2545 -0.7906  1.4652
 8773SOL     OW27759   0.875   5.489   8.518  0.1951  0.0368 -0.4977
 8773SOL    HW127760   0.907   5.578   8.504 -0.4599  0.1143 -1.6463
 8773SOL    HW227761   0.780   5.498   8.525  0.0838 -0.6152 -1.0636
 8774SOL     OW27762   7.360   2.270  12.036 -0.4321  0.5294  0.0524
 8774SOL    HW127763   7.266   2.261  12.024 -0.4156  2.5359 -2.6007
 8774SOL    HW227764   7.380   2.219  12.115 -3.1479 -2.8606 -1.2141
 8775SOL     OW27765   7.351   3.824   8.051  0.5012 -0.2527 -0.2638
 8775SOL    HW127766   7.305   3.741   8.061 -0.0422  0.0244 -0.4233
 8775SOL    HW227767   7.283   3.887   8.026  0.7021  0.4815  0.9254
 8776SOL     OW27768   6.210   7.970   2.906  0.4720 -0.0963 -0.0772
 8776SOL    HW127769   6.143   7.921   2.953 -0.4383  0.8219 -0.3779
 8776SOL    HW227770   6.163   8.042   2.865  1.6127  0.4438 -0.4915
 8777SOL     OW27771   2.844   6.776   8.111 -0.1456  0.8885  0.0118
 8777SOL    HW127772   2.840   6.763   8.206 -0.0925 -0.5071 -0.1551
 8777SOL    HW227773   2.926   6.733   8.085 -0.8244  0.0741 -0.8303
 8778SOL     OW27774   2.849   2.897   5.176  0.5002  0.3711  0.0857
 8778SOL    HW127775   2.921   2.837   5.195  0.0775 -0.2536 -0.2620
 8778SOL    HW227776   2.780   2.871   5.237  0.0403 -0.0120 -0.5816
 8779SOL     OW27777   7.569   4.336   8.033  0.1117  0.1173  0.4117
 8779SOL    HW127778   7.545   4.274   8.102  0.6690  1.1716  1.5743
 8779SOL    HW227779   7.514   4.413   8.049  2.2191  1.4853  1.4631
 8780SOL     OW27780   7.616   0.583   1.567 -0.2139 -0.7892 -0.2260
 8780SOL    HW127781   7.677   0.611   1.635  0.2431  1.9786 -1.6646
 8780SOL    HW227782   7.665   0.589   1.486 -1.4937 -1.5694 -1.0967
 8781SOL     OW27783   5.903   5.688   5.268  0.5651  0.2725 -0.4173
 8781SOL    HW127784   5.857   5.772   5.274  0.8670  0.4967 -1.0854
 8781SOL    HW227785   5.909   5.657   5.358 -1.0184  0.1599 -0.3202
 8782SOL     OW27786   4.504   0.576  10.893 -0.6443  0.1161 -0.0252
 8782SOL    HW127787   4.582   0.529  10.863  0.1546  0.7075  1.0652
 8782SOL    HW227788   4.434   0.546  10.834  0.5774  0.2597 -1.6121
 8783SOL     OW27789   4.182   2.745   9.263  0.2299  0.3269 -0.4924
 8783SOL    HW127790   4.237   2.801   9.208  2.1481 -1.2649 -0.3233
 8783SOL    HW227791   4.196   2.778   9.352  0.6417  0.1926 -0.5005
 8784SOL     OW27792   7.646   5.371   4.537  0.6247 -0.4244 -0.0465
 8784SOL    HW127793   7.575   5.404   4.484 -0.6225  0.0511  1.8151
 8784SOL    HW227794   7.696   5.449   4.562  0.3351 -0.4485  0.6444
 8785SOL     OW27795   4.038   7.047  10.841 -0.1764  0.1411  0.6817
 8785SOL    HW127796   4.032   7.076  10.932 -0.1922  2.1578  0.0744
 8785SOL    HW227797   3.971   7.098  10.795  0.1912 -0.4655 -0.5597
 8786SOL     OW27798   6.665   6.259   6.006  0.0402 -0.0034  0.4689
 8786SOL    HW127799   6.631   6.348   6.007 -0.6128 -0.2539  0.9886
 8786SOL    HW227800   6.652   6.227   6.096  0.2570 -0.6205  0.2849
 8787SOL     OW27801   0.582   0.689   7.662  0.1520 -0.2517  0.5183
 8787SOL    HW127802   0.647   0.640   7.712 -0.2050 -0.5857  0.6612
 8787SOL    HW227803   0.506   0.696   7.720 -0.6314 -1.5002 -0.3103
 8788SOL     OW27804   6.192   3.575   8.942 -0.7415  0.9983 -0.1976
 8788SOL    HW127805   6.215   3.639   9.010 -0.2470  0.9091 -0.2746
 8788SOL    HW227806   6.114   3.532   8.976 -2.0150  2.6760 -0.8305
 8789SOL     OW27807   5.785   2.544   1.434 -0.2976 -0.0491  0.4449
 8789SOL    HW127808   5.813   2.454   1.451  0.1766 -0.3851 -1.8067
 8789SOL    HW227809   5.702   2.536   1.388 -0.8985  0.7413  1.3476
 8790SOL     OW27810   3.085   6.242  10.619  0.1229  1.0717 -0.0621
 8790SOL    HW127811   3.019   6.241  10.688 -2.0486 -2.3181 -1.8789
 8790SOL    HW227812   3.169   6.243  10.665 -1.2042  1.5816  2.4944
 8791SOL     OW27813   1.448   7.669   7.464 -0.2891 -0.1236  0.1870
 8791SOL    HW127814   1.509   7.726   7.417 -1.3469  0.8790 -0.0030
 8791SOL    HW227815   1.465   7.582   7.428  1.0262  0.1198  0.1458
 8792SOL     OW27816   4.858   1.154   3.223  0.2949  0.5191  0.1017
 8792SOL    HW127817   4.931   1.097   3.246 -0.8319 -1.5127 -1.0191
 8792SOL    HW227818   4.819   1.179   3.306  2.4299  1.9575  0.7412
 8793SOL     OW27819   1.591   7.229   7.820  0.3068  0.0060  0.0534
 8793SOL    HW127820   1.559   7.233   7.730  1.0045 -0.9822 -0.2567
 8793SOL    HW227821   1.595   7.136   7.841  0.6314  0.2007  0.9316
 8794SOL     OW27822   3.456   3.807   7.469  0.5728  0.1679 -0.0474
 8794SOL    HW127823   3.436   3.790   7.561  0.2714 -2.1823 -0.4911
 8794SOL    HW227824   3.384   3.767   7.420  0.2489  2.1616 -1.3322
 8795SOL     OW27825   4.946   5.265   5.982 -0.1919 -0.2212 -0.4837
 8795SOL    HW127826   4.872   5.272   6.043  0.2783 -0.9974  0.1883
 8795SOL    HW227827   4.907   5.279   5.896 -1.6052 -2.9848 -0.3973
 8796SOL     OW27828   5.351   5.404  11.094  0.2079 -0.3972 -0.1740
 8796SOL    HW127829   5.392   5.450  11.021 -1.2447 -1.2883 -1.6072
 8796SOL    HW227830   5.343   5.314  11.065  0.6608 -1.0316  1.5736
 8797SOL     OW27831   1.232   1.252   3.574 -0.2462  0.3117  0.4580
 8797SOL    HW127832   1.296   1.210   3.517 -0.8283 -0.6219  0.4743
 8797SOL    HW227833   1.184   1.312   3.517 -1.3906 -1.2233 -0.2560
 8798SOL     OW27834   0.249   4.984   5.334  0.0814  0.0577 -0.1129
 8798SOL    HW127835   0.217   4.931   5.407 -1.5160  0.1875 -0.6838
 8798SOL    HW227836   0.256   5.073   5.370  0.4240 -0.0907  0.1902
 8799SOL     OW27837   5.302   2.818   5.034 -0.1659  0.2300  0.4008
 8799SOL    HW127838   5.209   2.799   5.023  0.0027 -0.1698 -0.3919
 8799SOL    HW227839   5.329   2.761   5.106 -0.5153  0.3069  0.5988
 8800SOL     OW27840   6.830   4.086   2.647  0.5024 -0.3371 -0.7084
 8800SOL    HW127841   6.793   4.041   2.571 -0.2381  1.3298 -1.3851
 8800SOL    HW227842   6.775   4.163   2.658  1.5535  0.2668  0.5834
 8801SOL     OW27843   3.712   2.554   2.598  0.0440  0.1957  0.2216
 8801SOL    HW127844   3.767   2.476   2.590 -0.7241 -0.3365 -0.0777
 8801SOL    HW227845   3.761   2.623   2.554  1.9248  0.5593  2.6637
 8802SOL     OW27846   7.158   1.440   6.854  0.0356 -0.0408 -0.0826
 8802SOL    HW127847   7.128   1.529   6.871 -2.3661 -1.0619  1.8920
 8802SOL    HW227848   7.247   1.437   6.888  0.9439  2.0418 -2.0425
 8803SOL     OW27849   1.869   1.134   8.731  0.1477 -0.7640  0.4030
 8803SOL    HW127850   1.845   1.225   8.712 -2.6603 -1.8458 -2.0120
 8803SOL    HW227851   1.964   1.132   8.721  0.3290  1.8996  0.7221
 8804SOL     OW27852   3.624   3.967   4.882 -0.0468  0.3475  0.0286
 8804SOL    HW127853   3.682   4.044   4.876 -0.0027  0.3673  0.6315
 8804SOL    HW227854   3.551   3.997   4.936  0.5591 -0.3811  1.2881
 8805SOL     OW27855   3.977   6.914   5.796 -0.1072 -0.0132  0.2789
 8805SOL    HW127856   3.954   6.886   5.885  2.2237  0.3643  1.0944
 8805SOL    HW227857   4.035   6.844   5.764 -0.8516 -0.1015 -0.9396
 8806SOL     OW27858   2.502   2.224   1.123 -0.7277  0.3953 -0.6873
 8806SOL    HW127859   2.573   2.188   1.071 -0.1203  1.1139 -0.3697
 8806SOL    HW227860   2.430   2.237   1.061 -1.1352 -1.7473 -0.7451
 8807SOL     OW27861   7.173   1.503   3.268  0.4090 -0.3688  0.4949
 8807SOL    HW127862   7.191   1.550   3.350  0.4498  0.5350 -0.0153
 8807SOL    HW227863   7.221   1.552   3.201 -0.2673 -0.6077 -0.1895
 8808SOL     OW27864   5.124   2.703   0.672 -0.1581  0.1800  0.2186
 8808SOL    HW127865   5.190   2.688   0.604 -0.3575  1.2873 -0.2374
 8808SOL    HW227866   5.048   2.652   0.643 -0.1790  0.4985 -0.2890
 8809SOL     OW27867   6.986   7.920   2.360  0.8531  0.0074  0.0165
 8809SOL    HW127868   7.053   7.980   2.327  0.4160  1.5380  1.7615
 8809SOL    HW227869   6.912   7.932   2.300  1.5436 -0.5113 -0.9738
 8810SOL     OW27870   6.715   3.351   9.255  0.3648 -0.7697 -0.0961
 8810SOL    HW127871   6.650   3.375   9.321  1.7966  0.9322  0.7941
 8810SOL    HW227872   6.681   3.271   9.215 -1.6158 -0.6411  1.2006
 8811SOL     OW27873   6.451   4.946   9.589  0.2725 -0.0134  0.1126
 8811SOL    HW127874   6.369   4.904   9.614 -0.3520  0.5034 -1.0195
 8811SOL    HW227875   6.430   5.039   9.584  1.0003  0.1542  0.1012
 8812SOL     OW27876   2.960   5.178  10.572 -0.2881  0.2569  0.2991
 8812SOL    HW127877   2.872   5.209  10.550 -0.5971  0.9844  2.2956
 8812SOL    HW227878   2.949   5.135  10.657  0.9622 -1.4119 -0.3451
 8813SOL     OW27879   2.448   7.368   0.388 -0.3467 -0.4518 -0.5033
 8813SOL    HW127880   2.384   7.305   0.421  0.2318 -0.5061  0.5469
 8813SOL    HW227881   2.451   7.437   0.454 -0.2177  0.1773 -1.1460
 8814SOL     OW27882   6.949   7.488   8.027  0.2906  0.0071 -0.1070
 8814SOL    HW127883   7.011   7.451   7.964  1.2284  4.0746 -1.8786
 8814SOL    HW227884   6.993   7.479   8.112  2.3805  0.8309 -1.0323
 8815SOL     OW27885   5.372   6.094   9.053 -0.4582 -0.4079  0.1335
 8815SOL    HW127886   5.444   6.036   9.029 -0.1346 -0.6177  1.5112
 8815SOL    HW227887   5.396   6.127   9.140  0.1853  3.0742 -1.1852
 8816SOL     OW27888   5.404   1.729   9.296 -0.0949  0.2871 -0.4776
 8816SOL    HW127889   5.320   1.768   9.322  0.3192  1.1829 -0.4547
 8816SOL    HW227890   5.385   1.682   9.215 -0.5059  0.9459 -0.7669
 8817SOL     OW27891   3.919   6.072   2.933 -0.1096  0.5177 -0.1332
 8817SOL    HW127892   3.925   6.099   3.025 -0.9321  1.1131 -0.2461
 8817SOL    HW227893   3.896   5.979   2.937 -1.0303  0.7490  0.2774
 8818SOL     OW27894   1.105   3.391   4.133 -0.6128  0.1351 -0.5563
 8818SOL    HW127895   1.181   3.448   4.146 -0.6443  0.2022 -0.6692
 8818SOL    HW227896   1.050   3.437   4.070 -1.6410  0.9386  0.8966
 8819SOL     OW27897   5.055   1.300   8.918  0.0142  0.3204  0.0118
 8819SOL    HW127898   4.961   1.286   8.908 -0.0483 -0.4013  1.4159
 8819SOL    HW227899   5.065   1.336   9.007  1.2616 -1.8449  0.8130
 8820SOL     OW27900   2.493   4.912   8.103  0.6684 -0.1783  0.2453
 8820SOL    HW127901   2.443   4.835   8.078  1.9795 -0.7486 -0.7670
 8820SOL    HW227902   2.434   4.986   8.086 -0.2903 -0.9001  0.3928
 8821SOL     OW27903   0.358   2.255   0.533 -0.1904 -0.0233 -0.2551
 8821SOL    HW127904   0.432   2.290   0.581 -0.8529  1.0906 -0.0084
 8821SOL    HW227905   0.358   2.162   0.552 -0.2199  0.3293  1.6186
 8822SOL     OW27906   4.746   3.749   0.857  0.0850  0.0830 -0.1263
 8822SOL    HW127907   4.840   3.751   0.835 -0.2094  1.7418 -1.5184
 8822SOL    HW227908   4.725   3.657   0.866  1.7393 -0.3487 -0.3380
 8823SOL     OW27909   7.586   7.434  11.927  0.1703  0.4664 -0.1973
 8823SOL    HW127910   7.655   7.368  11.919  0.5592  0.7644  0.6013
 8823SOL    HW227911   7.597   7.470  12.015 -1.5895 -0.1330  0.3131
 8824SOL     OW27912   7.078   2.244  10.171 -0.2622  0.4395 -0.1740
 8824SOL    HW127913   7.037   2.231  10.256  0.8819 -0.8105  0.2375
 8824SOL    HW227914   7.006   2.259  10.111 -1.2775 -1.0466  0.6172
 8825SOL     OW27915   2.950   2.145   9.193 -0.1104  0.0388 -0.6292
 8825SOL    HW127916   2.895   2.134   9.115  0.5610  0.9658 -1.2571
 8825SOL    HW227917   2.926   2.231   9.227 -0.9130 -0.6522  0.6337
 8826SOL     OW27918   2.530   7.521   4.073 -0.1379  0.2417  0.4343
 8826SOL    HW127919   2.453   7.476   4.107 -0.8596  0.0002 -1.3892
 8826SOL    HW227920   2.507   7.614   4.075  0.5486  0.4120  2.2536
 8827SOL     OW27921   2.015   6.036   1.979 -0.3741  0.1376 -0.4163
 8827SOL    HW127922   1.967   5.954   1.971 -0.3974  0.2879 -2.0966
 8827SOL    HW227923   2.088   6.028   1.918  0.6595  0.6869  0.6891
 8828SOL     OW27924   4.956   4.049  11.560 -0.5461  0.0290  0.0609
 8828SOL    HW127925   4.959   4.084  11.649  0.1100 -0.0429  0.0653
 8828SOL    HW227926   5.047   4.049  11.531 -0.5686 -1.4154 -0.0501
 8829SOL     OW27927   7.588   2.031   1.790  0.1263 -0.3248  0.4387
 8829SOL    HW127928   7.539   2.110   1.765 -0.3970 -0.0577  2.1800
 8829SOL    HW227929   7.523   1.976   1.833  0.7762 -1.1770  0.3440
 8830SOL     OW27930   4.194   2.435   6.671  0.1289  0.0174 -0.3620
 8830SOL    HW127931   4.214   2.426   6.764 -1.4289  0.1326 -0.0022
 8830SOL    HW227932   4.184   2.530   6.658 -0.3066 -0.0503 -0.5122
 8831SOL     OW27933   6.800   0.156   5.956  0.3724 -0.5046  0.0380
 8831SOL    HW127934   6.786   0.093   5.886  2.3835 -3.5205  2.0892
 8831SOL    HW227935   6.889   0.189   5.942  0.2747 -0.0645  0.4082
 8832SOL     OW27936   5.923   0.717   7.340  0.2471  0.6168 -0.0924
 8832SOL    HW127937   5.964   0.646   7.290 -0.4047  0.1270  0.0626
 8832SOL    HW227938   5.829   0.700   7.334  0.0715  1.5733 -0.2050
 8833SOL     OW27939   2.147   1.730   5.193 -0.0007 -0.2837 -0.4167
 8833SOL    HW127940   2.090   1.718   5.117 -2.7287  2.2305  1.0197
 8833SOL    HW227941   2.106   1.678   5.262  0.1054  0.5880  0.3276
 8834SOL     OW27942   7.136   0.113   8.295  0.1697  0.0249  0.2918
 8834SOL    HW127943   7.047   0.077   8.283  0.6820 -0.9430 -0.8601
 8834SOL    HW227944   7.140   0.136   8.388 -1.5445  0.8144  0.2139
 8835SOL     OW27945   1.359   5.177  10.591  0.0544 -0.7504 -0.3259
 8835SOL    HW127946   1.453   5.163  10.580  0.2000 -0.0858  0.0670
 8835SOL    HW227947   1.347   5.271  10.580 -0.4539 -0.7185  0.4571
 8836SOL     OW27948   1.852   5.092   8.914  0.1235  0.3029  0.2896
 8836SOL    HW127949   1.925   5.033   8.894 -0.1682  0.2496 -0.6385
 8836SOL    HW227950   1.889   5.180   8.902  0.3088  0.3038  0.8137
 8837SOL     OW27951   5.547   0.169   5.523 -0.1951 -0.3524 -0.0122
 8837SOL    HW127952   5.633   0.211   5.517  0.2520 -1.2770 -0.2707
 8837SOL    HW227953   5.567   0.079   5.548 -1.0085 -0.9309 -1.3681
 8838SOL     OW27954   1.056   1.342   1.944 -0.2536  0.0938  0.0488
 8838SOL    HW127955   1.085   1.306   1.861  2.5465  2.4217 -0.1458
 8838SOL    HW227956   1.023   1.267   1.993  1.3564 -1.9506 -1.8255
 8839SOL     OW27957   4.503   3.266   1.953 -0.3978 -0.2274  0.7618
 8839SOL    HW127958   4.429   3.206   1.951 -0.8861  0.3813 -0.1171
 8839SOL    HW227959   4.471   3.345   1.910  0.4692  0.3894  1.2138
 8840SOL     OW27960   6.806   4.590   9.252  0.6488 -0.1762  0.7033
 8840SOL    HW127961   6.867   4.547   9.192 -1.7999 -2.6219 -0.2302
 8840SOL    HW227962   6.836   4.681   9.256  1.5776 -0.1241 -3.4107
 8841SOL     OW27963   5.183   1.121   7.686  0.3775 -0.3052  0.1735
 8841SOL    HW127964   5.133   1.203   7.688  1.4431  0.3670 -0.0735
 8841SOL    HW227965   5.133   1.065   7.627 -0.8774 -0.1896  1.0803
 8842SOL     OW27966   7.934   5.309   0.538 -0.4380 -0.6318 -0.1085
 8842SOL    HW127967   7.888   5.245   0.592 -0.7778 -0.4301 -0.1538
 8842SOL    HW227968   7.885   5.391   0.552 -0.2134 -0.4628 -0.3141
 8843SOL     OW27969   1.928   6.980   6.840 -0.5647 -0.4985 -0.0117
 8843SOL    HW127970   1.961   7.022   6.760  0.5491  1.5475  1.4025
 8843SOL    HW227971   1.978   6.899   6.847 -1.0512 -0.9654 -1.6286
 8844SOL     OW27972   2.600   5.782   9.299 -0.4038 -0.2699 -0.2322
 8844SOL    HW127973   2.583   5.727   9.222  0.9974  0.3609 -1.0318
 8844SOL    HW227974   2.688   5.757   9.328 -1.2062 -1.0600  1.6917
 8845SOL     OW27975   3.956   6.354   9.657  0.2539  0.2890 -0.4299
 8845SOL    HW127976   3.876   6.307   9.635  0.5435 -0.1088 -0.6513
 8845SOL    HW227977   3.941   6.444   9.625  0.3773 -0.0888 -1.5962
 8846SOL     OW27978   1.845   3.184   0.140  0.7688 -0.7678  0.2936
 8846SOL    HW127979   1.760   3.228   0.146  0.2808 -1.5448 -0.6611
 8846SOL    HW227980   1.841   3.117   0.208 -0.5614 -2.6629 -1.5057
 8847SOL     OW27981   2.517   0.962   8.237  0.2995  0.8147  0.0225
 8847SOL    HW127982   2.593   1.001   8.193 -0.0895  0.0783 -1.3676
 8847SOL    HW227983   2.510   0.874   8.199 -0.2501  0.2518  1.3679
 8848SOL     OW27984   1.218   3.153   3.373 -0.4089 -0.3975 -0.0631
 8848SOL    HW127985   1.151   3.096   3.335 -1.9797  1.8343 -0.8830
 8848SOL    HW227986   1.226   3.225   3.310  0.7298  0.8006  1.3956
 8849SOL     OW27987   5.161   0.978   5.315 -0.0701 -0.0550 -0.3263
 8849SOL    HW127988   5.215   0.982   5.394 -2.1630 -1.3516  1.2495
 8849SOL    HW227989   5.140   1.069   5.296 -1.3024  0.1849  1.9311
 8850SOL     OW27990   2.649   2.467   9.055  0.2092 -0.2453 -0.8262
 8850SOL    HW127991   2.582   2.419   9.007 -0.3473  0.1122 -0.4160
 8850SOL    HW227992   2.666   2.546   9.004  0.2181 -0.2671 -0.8567
 8851SOL     OW27993   0.952   1.865   8.571 -0.1063  0.4001  0.4325
 8851SOL    HW127994   0.981   1.871   8.662 -0.1115  1.2925  0.3860
 8851SOL    HW227995   0.858   1.881   8.575 -0.1311  0.2858  0.2882
 8852SOL     OW27996   7.636   7.825   7.543 -0.6504  0.6034 -0.8021
 8852SOL    HW127997   7.596   7.743   7.574 -0.6448  1.1739  0.8510
 8852SOL    HW227998   7.573   7.893   7.567 -0.8117  1.0806 -2.4686
 8853SOL     OW27999   2.270   5.144   3.890  0.2595 -0.6004 -0.0568
 8853SOL    HW128000   2.205   5.190   3.944  1.5522 -0.7227  1.6765
 8853SOL    HW228001   2.321   5.214   3.849 -0.3391 -0.5166 -0.6984
 8854SOL     OW28002   6.919   6.640   8.070  0.2551  0.3817  0.1374
 8854SOL    HW128003   6.919   6.573   8.138  0.2697  0.3414  0.0978
 8854SOL    HW228004   6.829   6.672   8.067  0.4450  1.0231  0.8138
 8855SOL     OW28005   6.432   6.195   4.124 -0.8814  0.3515  0.4282
 8855SOL    HW128006   6.455   6.187   4.031 -2.0911  0.2261  0.1248
 8855SOL    HW228007   6.337   6.186   4.126 -0.7845 -0.7900  1.8075
 8856SOL     OW28008   4.830   2.221   5.867 -0.1749  0.6392  0.1320
 8856SOL    HW128009   4.909   2.236   5.918 -1.0373 -0.2577  1.8431
 8856SOL    HW228010   4.858   2.227   5.776  1.4467  2.2563  0.6812
 8857SOL     OW28011   1.643   0.886   7.485 -0.6083 -0.4259 -0.3496
 8857SOL    HW128012   1.707   0.951   7.514 -0.6913 -0.2193 -0.6272
 8857SOL    HW228013   1.663   0.808   7.537  0.3724 -0.6134 -0.9905
 8858SOL     OW28014   5.203   6.652  10.788  0.0405  0.0797 -0.4479
 8858SOL    HW128015   5.134   6.672  10.851 -0.6523 -0.1763 -1.1125
 8858SOL    HW228016   5.160   6.599  10.721  1.0501 -0.7019 -0.4992
 8859SOL     OW28017   0.290   3.317   2.549 -0.1043 -0.4791  0.0439
 8859SOL    HW128018   0.328   3.404   2.542 -1.6349  0.2118 -0.2003
 8859SOL    HW228019   0.352   3.259   2.504  0.7998  0.5169 -0.0149
 8860SOL     OW28020   0.377   2.401  10.734  0.0441  0.0072  0.5037
 8860SOL    HW128021   0.367   2.339  10.805 -1.1696 -0.0841  0.2746
 8860SOL    HW228022   0.367   2.487  10.775 -0.5720 -0.0423  0.4605
 8861SOL     OW28023   3.915   2.392   9.474 -0.0386 -0.1367  0.3324
 8861SOL    HW128024   3.931   2.335   9.550 -1.8034 -0.2609  0.6593
 8861SOL    HW228025   3.844   2.349   9.427  1.1742 -0.1672 -1.5504
 8862SOL     OW28026   3.818   4.105   3.356  0.3946  0.1086 -0.3060
 8862SOL    HW128027   3.778   4.025   3.319 -1.7057  1.5482 -1.3733
 8862SOL    HW228028   3.783   4.109   3.445  0.1644  0.0600 -0.3933
 8863SOL     OW28029   0.301   6.611   2.898  0.9900  0.2662 -0.1502
 8863SOL    HW128030   0.222   6.562   2.876  1.6985 -1.7160  1.5233
 8863SOL    HW228031   0.313   6.670   2.823 -1.8020  0.3585 -0.6498
 8864SOL     OW28032   6.078   6.152  10.328  0.1016 -0.3714 -0.3705
 8864SOL    HW128033   6.014   6.221  10.309  0.4316 -0.2054 -0.9087
 8864SOL    HW228034   6.121   6.182  10.408 -2.2362 -1.7399  1.5264
 8865SOL     OW28035   6.626   7.010   2.527  0.6160 -0.1008 -0.2916
 8865SOL    HW128036   6.591   7.078   2.470 -0.4929 -1.4231 -1.2764
 8865SOL    HW228037   6.627   7.049   2.614 -0.0947  1.1138 -0.8002
 8866SOL     OW28038   1.820   1.398   2.340  0.1519 -0.2288  0.2893
 8866SOL    HW128039   1.788   1.462   2.404  0.7369 -0.5544  0.9244
 8866SOL    HW228040   1.859   1.450   2.271  0.4577  0.1152  0.7131
 8867SOL     OW28041   3.328   4.935   6.357  0.0148  0.2475  0.2091
 8867SOL    HW128042   3.243   4.891   6.353  0.4343 -0.6102  0.6029
 8867SOL    HW228043   3.351   4.950   6.265  0.1121 -0.8473  0.0396
 8868SOL     OW28044   6.890   6.051   6.997  0.8044 -0.5786 -0.5279
 8868SOL    HW128045   6.913   6.057   7.090  2.5320 -0.7451 -0.9079
 8868SOL    HW228046   6.905   5.959   6.975 -0.4193 -0.7305 -0.7913
 8869SOL     OW28047   6.244   5.595   1.069 -0.3547 -0.0545  0.6346
 8869SOL    HW128048   6.196   5.536   1.011 -0.1774 -1.5429  1.9472
 8869SOL    HW228049   6.190   5.601   1.148 -0.0111  0.9747  0.8106
 8870SOL     OW28050   4.740   1.829  11.205 -0.0442 -0.0576 -0.3234
 8870SOL    HW128051   4.755   1.866  11.118 -1.3449 -0.5664 -0.7827
 8870SOL    HW228052   4.812   1.863  11.258  0.7840  0.2368 -1.5995
 8871SOL     OW28053   5.876   1.882   4.591 -0.8976  0.3980 -0.3931
 8871SOL    HW128054   5.877   1.787   4.591  0.9429  0.3696  0.8164
 8871SOL    HW228055   5.906   1.907   4.503 -0.7554 -0.1443 -0.4985
 8872SOL     OW28056   6.230   5.264  10.769 -0.0981  0.2219 -0.5587
 8872SOL    HW128057   6.146   5.217  10.772 -1.3735  2.3587 -0.3625
 8872SOL    HW228058   6.290   5.208  10.819 -1.3557 -1.4167 -0.7731
 8873SOL     OW28059   4.520   7.237   8.824 -0.6062  0.3571 -0.3668
 8873SOL    HW128060   4.593   7.193   8.868 -1.2767  0.3295  0.7515
 8873SOL    HW228061   4.562   7.296   8.761  0.4112  0.7835  0.6802
 8874SOL     OW28062   4.866   6.156   0.253 -0.2799 -0.0136  0.0643
 8874SOL    HW128063   4.924   6.202   0.314 -1.2850  0.1401  0.9395
 8874SOL    HW228064   4.818   6.225   0.208  0.6844 -0.1128 -1.1736
 8875SOL     OW28065   4.065   4.179   3.134 -0.1591 -0.2012  1.3946
 8875SOL    HW128066   3.993   4.183   3.071  0.2910  3.0013  0.8999
 8875SOL    HW228067   4.144   4.178   3.080  0.2084 -1.1127  1.9343
 8876SOL     OW28068   1.505   7.376   6.181 -0.6346 -0.3566 -0.5523
 8876SOL    HW128069   1.581   7.361   6.125  0.4435 -0.4477  0.8806
 8876SOL    HW228070   1.440   7.312   6.151 -0.1009 -0.3995 -1.6816
 8877SOL     OW28071   0.766   3.367  10.477 -0.5365  0.5912 -0.4986
 8877SOL    HW128072   0.777   3.272  10.475 -2.3538  0.3138  0.3839
 8877SOL    HW228073   0.810   3.395  10.557  0.0749  0.5141 -0.8017
 8878SOL     OW28074   4.691   2.795   5.425 -0.0006 -0.3585  0.4201
 8878SOL    HW128075   4.715   2.870   5.478 -0.0547  0.7286 -1.0316
 8878SOL    HW228076   4.771   2.774   5.375 -0.7027  0.4234 -1.1002
 8879SOL     OW28077   2.249   3.677   2.883 -0.6095 -0.3313  0.0792
 8879SOL    HW128078   2.240   3.739   2.955 -3.2330  1.1218 -1.3070
 8879SOL    HW228079   2.304   3.723   2.819 -0.4005 -0.5186  0.1272
 8880SOL     OW28080   5.577   0.259   4.869 -0.0973  0.0832  0.3341
 8880SOL    HW128081   5.485   0.276   4.847  0.5987  1.8072 -1.5202
 8880SOL    HW228082   5.572   0.202   4.946 -2.7131 -1.2512 -0.6634
 8881SOL     OW28083   5.389   6.619   5.803  0.0905  0.3381  0.0328
 8881SOL    HW128084   5.431   6.640   5.719  2.5913 -1.5863  0.6633
 8881SOL    HW228085   5.300   6.593   5.779  0.7682 -0.2947 -2.0962
 8882SOL     OW28086   7.639   1.154   4.641  0.4219  0.1412 -0.0888
 8882SOL    HW128087   7.605   1.066   4.657  0.6916  0.4778  2.9738
 8882SOL    HW228088   7.571   1.213   4.672  0.8609  0.9926 -0.6786
 8883SOL     OW28089   4.893   2.843  11.283 -0.6847 -0.9399 -0.3270
 8883SOL    HW128090   4.971   2.885  11.320 -1.8171 -0.4405  1.6179
 8883SOL    HW228091   4.919   2.819  11.194  1.5680 -0.4860  0.1472
 8884SOL     OW28092   2.306   7.435   9.892 -0.1146  0.4017 -0.5174
 8884SOL    HW128093   2.385   7.483   9.867  0.0877  1.5517  2.0102
 8884SOL    HW228094   2.337   7.344   9.903  0.8826  0.8325  0.4255
 8885SOL     OW28095   6.741   5.469   1.133 -0.1089  0.0197  0.1835
 8885SOL    HW128096   6.767   5.432   1.218  0.5808  0.6826  0.2693
 8885SOL    HW228097   6.653   5.505   1.149 -0.5123 -0.9763  0.2712
 8886SOL     OW28098   5.636   6.728   6.716 -0.0274  0.3661 -0.0171
 8886SOL    HW128099   5.723   6.763   6.695  0.8913 -1.9585 -0.3072
 8886SOL    HW228100   5.577   6.781   6.662  1.2969  1.2851 -0.6392
 8887SOL     OW28101   1.366   7.908   8.414  0.1451 -0.6576  0.2977
 8887SOL    HW128102   1.438   7.969   8.400  0.3166 -0.6552  1.1671
 8887SOL    HW228103   1.297   7.960   8.454  0.6030 -1.1947  1.8426
 8888SOL     OW28104   0.606   1.113   5.240  0.0529 -0.7085  0.0041
 8888SOL    HW128105   0.586   1.181   5.304  3.1527 -0.1060  0.4833
 8888SOL    HW228106   0.586   1.153   5.156 -0.7615 -0.2312  0.4167
 8889SOL     OW28107   5.485   1.170   3.346 -0.0089  0.2668  0.1180
 8889SOL    HW128108   5.488   1.075   3.329  2.1954 -0.1675  2.3751
 8889SOL    HW228109   5.392   1.191   3.346 -0.7477 -2.4501  2.1518
 8890SOL     OW28110   5.589   7.762   4.400  0.3907 -0.1231 -0.2332
 8890SOL    HW128111   5.663   7.751   4.459  0.0094  0.6922  0.4141
 8890SOL    HW228112   5.564   7.854   4.409 -1.5343 -0.6807  0.5521
 8891SOL     OW28113   3.416   0.382  10.992  0.4216  0.7268  0.2123
 8891SOL    HW128114   3.333   0.424  11.012  0.3962  0.9865 -0.4398
 8891SOL    HW228115   3.420   0.378  10.896  1.2352  0.8709  0.2276
 8892SOL     OW28116   7.410   2.538   4.951 -0.3024  0.0553 -0.2180
 8892SOL    HW128117   7.412   2.491   5.034 -0.0944  1.4865  0.6225
 8892SOL    HW228118   7.464   2.616   4.966 -0.1410  0.2698 -1.7440
 8893SOL     OW28119   5.001   4.943   8.921  0.0376  0.0193 -0.0992
 8893SOL    HW128120   4.958   4.904   8.996 -0.3331  1.6124  0.5615
 8893SOL    HW228121   4.946   4.918   8.846 -0.9617  0.4297  0.4835
 8894SOL     OW28122   2.070   7.059   2.305 -0.8071 -0.1123 -0.3472
 8894SOL    HW128123   2.049   7.014   2.223  0.2869 -1.2384 -0.0553
 8894SOL    HW228124   2.141   7.119   2.282  0.0417 -0.9909 -0.1097
 8895SOL     OW28125   4.784   5.993   5.551  0.2697  0.2211  0.0959
 8895SOL    HW128126   4.722   5.966   5.484 -0.8405 -0.6654  1.4299
 8895SOL    HW228127   4.732   5.997   5.632  1.9842 -0.7900  1.3155
 8896SOL     OW28128   1.369   4.601   9.166  0.1190 -1.0193  0.3341
 8896SOL    HW128129   1.373   4.523   9.110 -1.0273 -1.3532  0.6891
 8896SOL    HW228130   1.405   4.571   9.250  2.1602 -0.4274 -0.2750
 8897SOL     OW28131   3.679   2.994   0.512 -0.1439  0.0299 -0.3130
 8897SOL    HW128132   3.649   2.950   0.591 -2.6513  1.8067 -0.1703
 8897SOL    HW228133   3.757   3.043   0.539 -0.9160  0.5483  1.0643
 8898SOL     OW28134   2.977   6.609   9.188  0.2469 -0.1429 -0.5351
 8898SOL    HW128135   2.908   6.545   9.209  0.3006  0.1140  0.5133
 8898SOL    HW228136   3.057   6.557   9.185  0.3530 -0.0894  0.7348
 8899SOL     OW28137   4.294   1.735   1.634  0.8031 -0.4248  0.0902
 8899SOL    HW128138   4.333   1.807   1.584 -0.6183  0.2827 -0.0298
 8899SOL    HW228139   4.204   1.763   1.651  0.3565 -1.9800  0.4398
 8900SOL     OW28140   1.293   1.929   3.619  0.5654  0.0593 -0.4850
 8900SOL    HW128141   1.234   1.865   3.658 -1.6297  1.0355 -2.0458
 8900SOL    HW228142   1.278   1.923   3.525  0.2249  2.8635 -0.7064
 8901SOL     OW28143   6.639   6.306   0.109  0.1602  0.2271  0.0383
 8901SOL    HW128144   6.705   6.264   0.053  0.4461 -0.2304  0.7088
 8901SOL    HW228145   6.625   6.392   0.068  0.7162  0.0889 -0.4642
 8902SOL     OW28146   6.138   5.871   4.719  0.2890 -0.4132  0.6577
 8902SOL    HW128147   6.183   5.879   4.803  3.4658  0.0505 -0.9250
 8902SOL    HW228148   6.194   5.812   4.668 -1.0157  0.0578 -1.4420
 8903SOL     OW28149   6.910   5.437   4.167 -0.2196  0.4660  0.2137
 8903SOL    HW128150   6.818   5.424   4.146 -0.1677 -0.6042  0.5899
 8903SOL    HW228151   6.915   5.527   4.198 -1.0115  0.7502 -0.4476
 8904SOL     OW28152   4.993   0.871   0.971 -0.0414 -0.0687 -0.8551
 8904SOL    HW128153   4.928   0.915   1.024  0.6050 -0.7180  0.5313
 8904SOL    HW228154   4.995   0.920   0.889 -1.0059  1.0139 -0.2565
 8905SOL     OW28155   1.285   4.181  10.865  0.2860  0.0405 -0.2120
 8905SOL    HW128156   1.296   4.247  10.934  0.1028  1.1746 -1.2391
 8905SOL    HW228157   1.363   4.191  10.810  0.8076 -1.3837  0.2369
 8906SOL     OW28158   2.102   6.696   8.832  0.2635  0.0872  0.3373
 8906SOL    HW128159   2.054   6.768   8.873  1.0107  0.2115  1.0379
 8906SOL    HW228160   2.171   6.739   8.781  0.4796 -0.1158  0.4531
 8907SOL     OW28161   0.064   1.123   6.642  0.0078 -0.1778  0.4743
 8907SOL    HW128162   0.062   1.051   6.579  2.4425  0.7113 -0.7686
 8907SOL    HW228163  -0.022   1.164   6.633 -0.5189 -1.4206 -0.6241
 8908SOL     OW28164   0.695   5.167   7.139  0.0441 -0.0405 -0.1378
 8908SOL    HW128165   0.626   5.203   7.195 -1.0620 -1.8195 -0.2767
 8908SOL    HW228166   0.709   5.078   7.172 -1.2899 -1.5199 -3.1543
 8909SOL     OW28167   7.556   5.671   3.520  0.7179  0.7128 -0.5593
 8909SOL    HW128168   7.594   5.604   3.576  2.0847  2.4327  0.6898
 8909SOL    HW228169   7.589   5.652   3.433 -2.6592 -2.9277 -1.3158
 8910SOL     OW28170   0.610   6.906   5.605 -0.0545 -0.1805  0.3513
 8910SOL    HW128171   0.694   6.880   5.568 -0.8211  0.7676 -2.3204
 8910SOL    HW228172   0.546   6.854   5.557 -1.0622 -0.3582  1.8190
 8911SOL     OW28173   1.530   5.020  12.461  0.1874 -0.3875  0.0582
 8911SOL    HW128174   1.522   4.953  12.529 -0.2896 -1.9219 -1.4108
 8911SOL    HW228175   1.447   5.068  12.465 -0.1596 -0.9732  0.0801
 8912SOL     OW28176   2.350   7.536  10.172  0.1616 -0.5334 -0.7197
 8912SOL    HW128177   2.280   7.587  10.131  1.5515  1.0527 -1.2606
 8912SOL    HW228178   2.404   7.506  10.098  0.7063 -0.7137 -0.2554
 8913SOL     OW28179   5.873   6.407   3.694  0.1070 -0.2150 -0.3012
 8913SOL    HW128180   5.880   6.464   3.618  0.6840  3.5636  2.3181
 8913SOL    HW228181   5.779   6.405   3.715  0.3272  2.8242  1.5134
 8914SOL     OW28182   2.077   0.262   8.179 -0.2997  0.7184  0.4133
 8914SOL    HW128183   2.166   0.247   8.213 -0.4833  0.0052  0.5853
 8914SOL    HW228184   2.056   0.351   8.207  0.5563  1.0823 -0.0634
 8915SOL     OW28185   1.765   7.316  11.949 -0.4613 -0.0696  0.1069
 8915SOL    HW128186   1.719   7.255  12.008 -0.9166  0.3142  0.1540
 8915SOL    HW228187   1.748   7.282  11.861  0.3763 -0.7536  0.1921
 8916SOL     OW28188   4.994   1.375   7.592 -0.2007 -0.3629 -0.6110
 8916SOL    HW128189   4.962   1.459   7.624 -0.2587 -0.5433 -0.1904
 8916SOL    HW228190   4.930   1.311   7.624  1.0282 -0.8445  0.9897
 8917SOL     OW28191   0.522   3.737   3.091  0.3450 -0.4925  0.3490
 8917SOL    HW128192   0.518   3.826   3.126  2.1902  0.1621 -0.9492
 8917SOL    HW228193   0.490   3.746   3.001  1.9175 -0.8273 -0.2725
 8918SOL     OW28194   0.743   2.677  11.471  0.4217 -0.0426 -0.2250
 8918SOL    HW128195   0.799   2.622  11.416  0.6733  0.5331 -0.5461
 8918SOL    HW228196   0.801   2.708  11.541  0.2562 -0.2616  0.0108
 8919SOL     OW28197   0.912   7.293   6.914 -0.6323 -0.2713  0.1010
 8919SOL    HW128198   0.944   7.234   6.846 -1.2120 -1.2163  0.6327
 8919SOL    HW228199   0.828   7.325   6.881  0.0515  0.9360 -0.5578
 8920SOL     OW28200   5.087   6.930   2.743  0.0942 -0.2720 -0.8316
 8920SOL    HW128201   5.007   6.976   2.716 -1.5285 -2.8667 -0.7970
 8920SOL    HW228202   5.117   6.886   2.664  1.0571  0.0497 -0.6523
 8921SOL     OW28203   0.152   2.246   4.110  0.1945  0.3109  0.1125
 8921SOL    HW128204   0.188   2.161   4.133  1.6563  0.8848  0.0782
 8921SOL    HW228205   0.223   2.290   4.064 -0.7061  1.3680 -0.3163
 8922SOL     OW28206   7.104   4.799   9.953  0.0652  0.6420  0.4944
 8922SOL    HW128207   7.067   4.841  10.030 -0.6601  1.9033 -0.5091
 8922SOL    HW228208   7.197   4.821   9.956  0.1675  0.1315  1.3405
 8923SOL     OW28209   7.376   5.585   1.049 -0.1270  0.8993  0.0550
 8923SOL    HW128210   7.439   5.637   0.999  0.5404 -1.4194 -1.6819
 8923SOL    HW228211   7.429   5.515   1.089 -1.2910  0.1649  0.3600
 8924SOL     OW28212   7.413   5.045   1.400  0.0122 -0.1028  0.0705
 8924SOL    HW128213   7.501   5.062   1.368 -0.0764  1.7503  0.6671
 8924SOL    HW228214   7.424   5.032   1.494 -0.2189 -1.1808 -0.0400
 8925SOL     OW28215   3.397   1.431   1.912  0.1088  0.3398 -0.3796
 8925SOL    HW128216   3.416   1.495   1.843 -1.1020 -0.0281 -1.0821
 8925SOL    HW228217   3.455   1.357   1.894  0.6738  0.7431 -0.2572
 8926SOL     OW28218   3.542   4.065  10.568  0.5369  0.6138 -0.0879
 8926SOL    HW128219   3.505   4.037  10.651  2.0109 -0.4448  0.2533
 8926SOL    HW228220   3.499   4.008  10.503 -0.0512  0.9192  0.0259
 8927SOL     OW28221   1.965   4.144   8.371 -0.2342 -0.3686 -0.1246
 8927SOL    HW128222   1.969   4.240   8.364 -0.4566 -0.3560 -0.0702
 8927SOL    HW228223   1.879   4.126   8.408 -0.3318 -0.6061 -0.4623
 8928SOL     OW28224   1.482   4.437   5.984  0.0373 -0.0967  0.1637
 8928SOL    HW128225   1.386   4.434   5.978  0.0169 -0.4938  0.6074
 8928SOL    HW228226   1.510   4.476   5.901 -0.4428 -1.2575 -0.5735
 8929SOL     OW28227   5.594   7.261   5.608  0.0969 -0.0952 -0.4933
 8929SOL    HW128228   5.642   7.337   5.641  0.3450 -0.5176  0.1331
 8929SOL    HW228229   5.506   7.271   5.644  0.1771 -0.1955 -0.2691
 8930SOL     OW28230   1.444   0.989   9.800  0.1916 -0.3798 -0.9473
 8930SOL    HW128231   1.512   0.981   9.734 -0.4556 -2.8852 -1.4287
 8930SOL    HW228232   1.390   0.911   9.789 -0.8032 -0.1735  1.5973
 8931SOL     OW28233   4.879   7.343   3.230 -0.1234  0.2593  0.3336
 8931SOL    HW128234   4.903   7.354   3.138  1.2432  0.9255  0.7333
 8931SOL    HW228235   4.916   7.420   3.274 -1.7747  0.5748  1.2817
 8932SOL     OW28236   5.860   6.899   1.492 -0.3613 -0.4553 -0.4175
 8932SOL    HW128237   5.809   6.927   1.569 -0.6283 -1.5617 -0.1736
 8932SOL    HW228238   5.891   6.981   1.453  0.5796  0.1116  1.4073
 8933SOL     OW28239   0.456   1.335  11.581 -0.4642 -0.2402  0.0591
 8933SOL    HW128240   0.528   1.329  11.518  1.2958  0.1074  1.9396
 8933SOL    HW228241   0.498   1.350  11.665 -2.7358 -0.5460  1.3471
 8934SOL     OW28242   5.510   2.945   4.892 -0.1355  0.3516 -0.5000
 8934SOL    HW128243   5.434   2.893   4.918 -1.1928  1.8099 -0.5312
 8934SOL    HW228244   5.488   2.977   4.804  0.7349  0.3962 -0.7064
 8935SOL     OW28245   0.326   6.560  10.754 -0.3632  0.0942 -0.1188
 8935SOL    HW128246   0.377   6.620  10.809  1.2457 -0.2565 -1.1524
 8935SOL    HW228247   0.324   6.479  10.804  2.5242 -0.7459 -1.1580
 8936SOL     OW28248   3.337   4.764   9.742 -0.2178  0.2895  0.1174
 8936SOL    HW128249   3.369   4.853   9.751  1.1705  0.0496 -1.8126
 8936SOL    HW228250   3.405   4.709   9.781 -0.4841  0.0028  0.1882
 8937SOL     OW28251   3.350   2.639  11.855  0.2148  0.8202  0.3349
 8937SOL    HW128252   3.308   2.610  11.936  1.2642  1.4588  1.1422
 8937SOL    HW228253   3.422   2.578  11.842 -0.4669  0.1966 -0.6117
 8938SOL     OW28254   0.592   4.264   7.348 -0.3449 -0.6538 -0.0657
 8938SOL    HW128255   0.660   4.202   7.322 -1.3832 -1.0129 -2.1608
 8938SOL    HW228256   0.566   4.237   7.436  2.0699 -0.5843  0.7410
 8939SOL     OW28257   0.510   6.388   4.679  0.1431  0.0793  0.3033
 8939SOL    HW128258   0.455   6.451   4.724 -2.4866 -1.4622 -0.5660
 8939SOL    HW228259   0.589   6.382   4.734 -1.0668  1.4190  2.3097
 8940SOL     OW28260   1.321   2.568   2.727 -0.2007  0.5530 -0.4907
 8940SOL    HW128261   1.407   2.529   2.741  0.3032  1.4380 -1.0281
 8940SOL    HW228262   1.328   2.611   2.642 -0.5197  2.3527  0.3525
 8941SOL     OW28263   7.074   1.360   9.208  0.0686 -0.4621 -0.3136
 8941SOL    HW128264   7.152   1.393   9.252  0.1985 -1.3117  0.1260
 8941SOL    HW228265   7.108   1.300   9.141 -0.1914 -0.5025 -0.4103
 8942SOL     OW28266   3.066   6.358   0.925 -0.1016  0.3735  0.3207
 8942SOL    HW128267   3.067   6.381   1.018  0.5842  0.3138  0.3348
 8942SOL    HW228268   3.048   6.264   0.923 -1.0975  0.5589  0.3452
 8943SOL     OW28269   1.962   3.328   6.377 -0.8353  0.2333  0.1719
 8943SOL    HW128270   2.049   3.347   6.412 -0.8446  0.4824  0.0667
 8943SOL    HW228271   1.925   3.264   6.436 -0.2288 -0.5504 -0.2787
 8944SOL     OW28272   0.953   3.694   4.680  0.0791 -0.3781  0.5986
 8944SOL    HW128273   1.045   3.706   4.702  0.3199  1.7726 -1.2501
 8944SOL    HW228274   0.954   3.637   4.603 -0.1527 -0.2156  0.4765
 8945SOL     OW28275   6.194   7.489   7.956 -0.3872 -0.3001  0.2387
 8945SOL    HW128276   6.147   7.519   8.034 -0.1143  0.4458  0.1233
 8945SOL    HW228277   6.137   7.424   7.916 -0.2127 -1.2339  1.4609
 8946SOL     OW28278   2.222   6.954   1.889  0.7793 -0.5912 -0.7443
 8946SOL    HW128279   2.234   6.990   1.801 -0.3306  2.0011  0.0608
 8946SOL    HW228280   2.311   6.946   1.924  1.2195 -1.4773 -2.0087
 8947SOL     OW28281   6.783   4.554  10.812 -0.8638  0.0296  0.6947
 8947SOL    HW128282   6.870   4.570  10.776  0.1162 -2.1179  1.8419
 8947SOL    HW228283   6.779   4.609  10.890  0.1754 -1.0397  1.5392
 8948SOL     OW28284   2.291   1.742   4.462  0.2488 -0.8225 -0.1648
 8948SOL    HW128285   2.327   1.654   4.474 -0.7584 -1.2831 -0.4716
 8948SOL    HW228286   2.368   1.797   4.444  0.9550 -1.5121  0.6355
 8949SOL     OW28287   3.875   7.636   2.694  0.4926  0.2976  0.1163
 8949SOL    HW128288   3.818   7.713   2.687  0.2457  0.1279  0.2771
 8949SOL    HW228289   3.866   7.607   2.784  1.2180  0.5624  0.2841
 8950SOL     OW28290   7.786   0.293   5.680  0.3026 -0.3483  0.0585
 8950SOL    HW128291   7.704   0.321   5.640  0.7184  1.2483  0.2741
 8950SOL    HW228292   7.763   0.215   5.731 -0.8936 -0.4227 -0.5720
 8951SOL     OW28293   6.988   4.590   3.614 -0.5982 -0.3754  0.6670
 8951SOL    HW128294   6.912   4.643   3.635 -0.3727  0.9001 -1.4691
 8951SOL    HW228295   7.033   4.579   3.698 -2.3667  0.0175  1.7206
 8952SOL     OW28296   3.862   2.058   9.076  0.2751  0.2266  0.1897
 8952SOL    HW128297   3.799   2.130   9.081 -0.8509 -0.7253  0.1676
 8952SOL    HW228298   3.842   2.014   8.994  1.9552  0.7461 -0.5491
 8953SOL     OW28299   4.926   5.544  10.395  0.2498 -0.3246 -0.2535
 8953SOL    HW128300   4.856   5.574  10.453  1.3573  0.3845  0.7550
 8953SOL    HW228301   4.922   5.604  10.320 -0.1855 -0.2612 -0.1825
 8954SOL     OW28302   1.673   7.932   5.693  0.0681 -0.9683 -0.7141
 8954SOL    HW128303   1.669   8.008   5.750 -0.8147 -2.9966  2.1787
 8954SOL    HW228304   1.766   7.916   5.680  0.2916 -0.3469  0.0582
 8955SOL     OW28305   2.608   6.804   5.186 -0.2398  0.1041  0.0095
 8955SOL    HW128306   2.644   6.819   5.099 -0.0212 -0.9852 -0.1034
 8955SOL    HW228307   2.565   6.886   5.209 -0.0402  0.5012 -0.9966
 8956SOL     OW28308   5.647   1.811   9.714  0.1164 -0.1319 -0.0264
 8956SOL    HW128309   5.720   1.867   9.690 -0.3282 -0.2335 -1.7184
 8956SOL    HW228310   5.678   1.722   9.698 -0.3329 -0.1826 -0.6331
 8957SOL     OW28311   2.756   2.517   4.951  0.3640  0.1969 -0.3265
 8957SOL    HW128312   2.691   2.509   4.881 -0.5557 -0.0400  0.5408
 8957SOL    HW228313   2.706   2.550   5.026  1.3063  0.2969  0.2656
 8958SOL     OW28314   0.106   4.760   0.223  0.2542 -0.8288 -0.5930
 8958SOL    HW128315   0.138   4.787   0.137 -0.4260 -1.4036 -1.0391
 8958SOL    HW228316   0.165   4.690   0.250  0.2133 -0.9402 -0.7871
 8959SOL     OW28317   7.304   2.586  11.394  0.0339  0.1087 -0.3831
 8959SOL    HW128318   7.281   2.665  11.344  0.7323 -0.2657 -1.3290
 8959SOL    HW228319   7.293   2.515  11.331  1.2986 -0.3358 -0.1206
 8960SOL     OW28320   6.301   3.278   5.743  0.2000  0.1206  0.3469
 8960SOL    HW128321   6.390   3.273   5.778  0.4707  0.5250 -0.2666
 8960SOL    HW228322   6.313   3.269   5.648 -0.6341 -2.4098  0.4079
 8961SOL     OW28323   1.218   2.188   7.587  0.5976 -0.0867 -0.4684
 8961SOL    HW128324   1.179   2.105   7.613  0.8815 -0.4239 -1.1037
 8961SOL    HW228325   1.225   2.183   7.491  0.5559  0.6914 -0.5242
 8962SOL     OW28326   7.142   5.310   3.096 -0.0956 -0.9784  0.1091
 8962SOL    HW128327   7.096   5.394   3.096  0.8548 -0.4092 -1.8694
 8962SOL    HW228328   7.223   5.327   3.144 -0.7470 -1.3169  1.3840
 8963SOL     OW28329   7.570   5.744   0.438 -0.4419  0.0078  0.3264
 8963SOL    HW128330   7.479   5.719   0.422 -0.1663  0.1701 -1.6571
 8963SOL    HW228331   7.565   5.804   0.513 -1.8455 -0.7049  0.8378
 8964SOL     OW28332   3.658   5.444   2.889  0.1801  0.0484 -0.1629
 8964SOL    HW128333   3.700   5.466   2.973 -3.4690  0.1006  1.8753
 8964SOL    HW228334   3.641   5.350   2.895 -0.0741  0.0495 -0.8450
 8965SOL     OW28335   6.115   3.807   7.145 -0.0371 -0.3409  0.4368
 8965SOL    HW128336   6.181   3.798   7.076  0.8846 -1.9334  1.4661
 8965SOL    HW228337   6.098   3.901   7.149  2.0538  0.1118  0.0249
 8966SOL     OW28338   4.053   1.866   6.500  0.3632  0.1310  0.3547
 8966SOL    HW128339   3.999   1.855   6.578  2.4645  0.5935  1.9772
 8966SOL    HW228340   4.067   1.961   6.494  2.1374 -0.0743  0.8454
 8967SOL     OW28341   1.333   4.015   7.021 -0.3471  0.3580 -0.2619
 8967SOL    HW128342   1.354   4.044   6.933  3.1471 -0.9751 -0.0256
 8967SOL    HW228343   1.326   3.920   7.014  1.7624  0.0405  1.1086
 8968SOL     OW28344   6.112   0.661   9.040  0.2137 -0.5300  0.6691
 8968SOL    HW128345   6.157   0.680   9.122 -0.0224 -1.9009  1.1447
 8968SOL    HW228346   6.182   0.636   8.979  0.2747 -0.9143  0.8900
 8969SOL     OW28347   1.195   0.541   3.025  0.1501 -0.3067 -0.2398
 8969SOL    HW128348   1.260   0.599   2.984 -0.2868 -0.1325 -0.6961
 8969SOL    HW228349   1.200   0.562   3.118  1.3296 -0.8810 -0.1508
 8970SOL     OW28350   2.487   3.254  10.927 -0.2737 -0.8182  0.0911
 8970SOL    HW128351   2.450   3.169  10.905 -1.1592  0.2173 -2.9252
 8970SOL    HW228352   2.582   3.240  10.926 -0.3955 -2.2988  2.4433
 8971SOL     OW28353   2.998   6.778   4.690 -0.5893  0.1937  0.0754
 8971SOL    HW128354   2.955   6.759   4.773 -1.2127  0.6096 -0.1482
 8971SOL    HW228355   3.008   6.873   4.689  0.2343  0.1165  0.0702
 8972SOL     OW28356   7.830   0.244   8.854  0.1687  0.3746  0.1091
 8972SOL    HW128357   7.894   0.173   8.861  1.7138  1.8332  3.0682
 8972SOL    HW228358   7.867   0.304   8.790 -0.0273 -0.4134 -0.7580
 8973SOL     OW28359   6.679   0.910  10.314  0.3048 -0.0833 -0.4456
 8973SOL    HW128360   6.760   0.951  10.282  0.1857  0.4255 -0.1116
 8973SOL    HW228361   6.609   0.960  10.273  0.1217 -1.5699 -2.0763
 8974SOL     OW28362   2.816   5.088   6.938 -0.1586  0.3812  0.1125
 8974SOL    HW128363   2.780   5.172   6.907  0.3358 -0.2028 -2.2214
 8974SOL    HW228364   2.739   5.032   6.947 -0.2401  0.1219 -1.6684
 8975SOL     OW28365   0.358   4.102  11.643  0.8041 -0.2769  0.6949
 8975SOL    HW128366   0.405   4.029  11.683  0.1098 -1.1983 -0.1216
 8975SOL    HW228367   0.281   4.114  11.698 -1.9926 -3.7528 -1.9193
 8976SOL     OW28368   3.474   0.536   1.871 -0.2007  0.3224 -0.0560
 8976SOL    HW128369   3.498   0.487   1.792  0.1004  0.6526 -0.1717
 8976SOL    HW228370   3.435   0.617   1.839 -0.2886  0.3565  0.1341
 8977SOL     OW28371   7.340   6.904  11.105 -0.4591  0.2949  0.3093
 8977SOL    HW128372   7.408   6.948  11.054 -0.0770 -0.2562  0.3284
 8977SOL    HW228373   7.342   6.947  11.190 -1.6898  1.7993 -0.3826
 8978SOL     OW28374   3.216   5.650   0.354  0.0989 -0.0607 -0.1036
 8978SOL    HW128375   3.156   5.597   0.302  0.4001  0.3318 -0.8691
 8978SOL    HW228376   3.279   5.684   0.290 -0.0955  1.2290  0.3649
 8979SOL     OW28377   1.133   0.100   4.622 -0.5351  0.2890  0.4541
 8979SOL    HW128378   1.142   0.175   4.563  1.2731  0.1926  0.5703
 8979SOL    HW228379   1.220   0.061   4.626 -1.6051 -2.4232 -0.3704
 8980SOL     OW28380   3.585   0.010  10.773  0.4190 -0.1666 -0.2613
 8980SOL    HW128381   3.605  -0.077  10.737  1.0657 -0.2053  0.1690
 8980SOL    HW228382   3.490   0.013  10.775  0.1463 -2.7913  4.0035
 8981SOL     OW28383   6.782   7.250  11.407 -0.0164  0.0233  0.1593
 8981SOL    HW128384   6.741   7.178  11.455 -2.1641  2.1678  1.8070
 8981SOL    HW228385   6.765   7.229  11.315 -1.0581 -1.3017  0.6113
 8982SOL     OW28386   5.246   0.024  10.586  0.6275  0.2844  0.2108
 8982SOL    HW128387   5.231  -0.069  10.603  1.3166  0.2983  0.9711
 8982SOL    HW228388   5.158   0.063  10.581  0.1488 -0.8990 -3.2904
 8983SOL     OW28389   4.156   3.922   8.436 -0.7803  0.4307 -0.5969
 8983SOL    HW128390   4.184   4.001   8.483 -0.9368 -0.9215  2.0066
 8983SOL    HW228391   4.181   3.850   8.495 -3.4542 -1.2434 -1.3512
 8984SOL     OW28392   3.626   7.565   7.713  0.1382  0.4637 -0.5248
 8984SOL    HW128393   3.603   7.481   7.673 -0.9090  0.7595 -0.5757
 8984SOL    HW228394   3.702   7.595   7.664 -1.0815  0.7949 -2.2788
 8985SOL     OW28395   3.768   3.035  11.366  0.1249  0.3679 -0.7285
 8985SOL    HW128396   3.825   3.111  11.376  0.6543  0.1154 -1.7071
 8985SOL    HW228397   3.697   3.065  11.310  0.7256 -0.0539 -1.7279
 8986SOL     OW28398   7.477   5.865   7.052 -0.1235 -0.4117 -0.1630
 8986SOL    HW128399   7.532   5.914   6.991  0.6993 -0.0206  0.8864
 8986SOL    HW228400   7.410   5.825   6.996  0.3163  0.3497 -1.2607
 8987SOL     OW28401   3.817   7.359  11.030 -0.0715  0.4209  0.0104
 8987SOL    HW128402   3.824   7.403  11.115 -1.6264 -0.4524  0.6469
 8987SOL    HW228403   3.888   7.396  10.978 -0.1576  2.2919  1.1057
 8988SOL     OW28404   6.682   2.257   4.245 -0.4117 -0.3183 -0.2852
 8988SOL    HW128405   6.618   2.264   4.315 -0.0490 -0.4799  0.0690
 8988SOL    HW228406   6.651   2.185   4.190 -1.0059  0.1822 -0.6259
 8989SOL     OW28407   3.025   0.517   6.089 -0.0840 -0.4063  0.2217
 8989SOL    HW128408   3.069   0.550   6.011 -0.0263 -0.1614  0.3569
 8989SOL    HW228409   3.064   0.566   6.161 -0.4223 -0.3441  0.3633
 8990SOL     OW28410   2.178   1.130   3.925 -0.0143  0.2649 -0.2247
 8990SOL    HW128411   2.115   1.099   3.990  1.5588 -0.6387  0.9070
 8990SOL    HW228412   2.155   1.223   3.913 -1.1020  0.1347  0.6824
 8991SOL     OW28413   3.122   6.495   5.300 -0.2165 -0.7546  0.1129
 8991SOL    HW128414   3.154   6.550   5.372  0.7234 -0.4310 -0.5337
 8991SOL    HW228415   3.036   6.530   5.279  0.4829  0.6696 -0.4756
 8992SOL     OW28416   7.006   4.871   1.230 -0.2745  0.1148  0.0748
 8992SOL    HW128417   7.002   4.794   1.287 -0.2331  0.4546  0.5440
 8992SOL    HW228418   6.933   4.859   1.168  0.5891 -0.9895 -0.7638
 8993SOL     OW28419   7.977   3.758  11.568 -0.1757  0.2017 -0.4394
 8993SOL    HW128420   7.916   3.818  11.525 -2.7725 -0.3721  2.1220
 8993SOL    HW228421   7.974   3.784  11.660 -0.3581 -2.9240  0.5448
 8994SOL     OW28422   2.075   6.114   2.245 -0.5409 -0.4476  0.4406
 8994SOL    HW128423   2.045   6.049   2.310 -0.1432 -0.7485  0.3305
 8994SOL    HW228424   2.043   6.081   2.161  1.4002 -1.6354  0.1008
 8995SOL     OW28425   4.599   7.911  10.886 -0.1841  0.5860  0.0832
 8995SOL    HW128426   4.591   7.964  10.965  1.7775  0.4438  0.4194
 8995SOL    HW228427   4.687   7.930  10.852  1.1973 -3.3087  0.9227
 8996SOL     OW28428   4.614   1.870   0.812 -0.3402 -0.0629  0.4311
 8996SOL    HW128429   4.616   1.966   0.805  0.9533  0.0772  2.1134
 8996SOL    HW228430   4.664   1.839   0.737 -0.9690  0.5571 -0.2600
 8997SOL     OW28431   2.239   7.926   5.910 -0.4617  0.1228  0.2834
 8997SOL    HW128432   2.228   7.921   5.815 -0.1424 -0.1849  0.2592
 8997SOL    HW228433   2.282   8.010   5.924 -0.4313  0.1319  0.1441
 8998SOL     OW28434   7.852   2.061   4.287  0.2121 -0.1822  0.1679
 8998SOL    HW128435   7.797   2.086   4.213 -0.5754  0.7433  1.0257
 8998SOL    HW228436   7.865   1.967   4.277  1.1921  0.1225 -1.8274
 8999SOL     OW28437   6.282   1.478  12.397 -0.0102 -0.0014  0.4100
 8999SOL    HW128438   6.371   1.483  12.431  0.6212  0.0619 -1.1711
 8999SOL    HW228439   6.226   1.486  12.474  1.3454  0.2231  1.3983
 9000SOL     OW28440   6.787   5.726   3.862 -0.9028 -0.1369  0.3311
 9000SOL    HW128441   6.704   5.768   3.840 -0.5489  0.7992  0.7590
 9000SOL    HW228442   6.848   5.757   3.795 -0.1856  1.5504  1.6967
 9001SOL     OW28443   7.577   3.961   4.680  0.5542 -0.3870  0.4835
 9001SOL    HW128444   7.531   3.979   4.762 -1.4239  0.7642 -0.7908
 9001SOL    HW228445   7.637   4.035   4.669 -0.5735  0.4937  0.0047
 9002SOL     OW28446   1.447   7.676   5.392  0.2258 -0.2477  0.0129
 9002SOL    HW128447   1.387   7.746   5.417  0.7049  0.0371  0.3867
 9002SOL    HW228448   1.531   7.720   5.377  0.3300 -0.6308 -0.5627
 9003SOL     OW28449   2.513   5.438   9.235  0.6077 -0.2514 -0.3650
 9003SOL    HW128450   2.436   5.395   9.273  0.1345  0.5033 -0.4442
 9003SOL    HW228451   2.567   5.461   9.311  0.4936 -0.3065 -0.2670
 9004SOL     OW28452   0.522   2.080  12.145  0.2096 -0.0127  0.2787
 9004SOL    HW128453   0.530   2.115  12.056  1.2082  2.4606  1.2524
 9004SOL    HW228454   0.449   2.128  12.183 -1.5475 -2.4864  0.2683
 9005SOL     OW28455   2.732   7.896  10.783  0.2961 -0.0999 -0.4300
 9005SOL    HW128456   2.820   7.922  10.755  1.5028 -0.4173  2.7393
 9005SOL    HW228457   2.743   7.806  10.815 -0.9804  0.1488  0.7731
 9006SOL     OW28458   2.735   4.879   1.502 -0.4905  0.2371  0.1513
 9006SOL    HW128459   2.814   4.826   1.497 -0.4938  0.3298 -1.2635
 9006SOL    HW228460   2.749   4.936   1.577  0.9494  0.4931 -0.2813
 9007SOL     OW28461   3.369   1.806   6.646  0.0087 -0.0200  0.2782
 9007SOL    HW128462   3.289   1.832   6.600  0.7045  0.4895 -0.6851
 9007SOL    HW228463   3.440   1.844   6.594  0.9564 -1.6976  0.2579
 9008SOL     OW28464   1.581   4.378   3.383  0.3026  0.6160  0.6465
 9008SOL    HW128465   1.670   4.368   3.418  0.8969 -0.0195 -0.9661
 9008SOL    HW228466   1.586   4.456   3.328  0.2268 -0.1754 -0.5061
 9009SOL     OW28467   2.534   2.764  12.423 -0.5921 -0.2412  0.0834
 9009SOL    HW128468   2.508   2.838  12.369 -0.7274 -1.2071 -1.2125
 9009SOL    HW228469   2.453   2.733  12.464 -0.5672  0.1790  0.4610
 9010SOL     OW28470   6.049   0.308   1.650  0.3890  0.0886  0.0818
 9010SOL    HW128471   5.955   0.321   1.648  0.3395 -0.1639  0.5285
 9010SOL    HW228472   6.078   0.351   1.731  0.6299  0.0207  0.0336
 9011SOL     OW28473   0.307   4.356   4.413 -0.5695 -0.2160  0.0774
 9011SOL    HW128474   0.376   4.304   4.454 -0.8673 -0.0921  0.7564
 9011SOL    HW228475   0.308   4.329   4.321 -0.9657 -1.6919  0.4807
 9012SOL     OW28476   2.328   6.800  10.954  0.3833 -0.0669 -0.0152
 9012SOL    HW128477   2.366   6.717  10.983 -0.0767  0.0271  0.8730
 9012SOL    HW228478   2.286   6.778  10.870  1.3595 -0.4263 -0.4304
 9013SOL     OW28479   4.142   3.616   0.260  0.1245  0.1649 -0.1675
 9013SOL    HW128480   4.054   3.649   0.277 -0.5945 -1.4417 -0.6184
 9013SOL    HW228481   4.135   3.568   0.177  0.8561 -1.8821  0.8747
 9014SOL     OW28482   1.815   6.337   8.221  0.2721 -0.0011  0.4478
 9014SOL    HW128483   1.817   6.419   8.172  1.0275 -0.7287 -0.8128
 9014SOL    HW228484   1.802   6.363   8.312 -2.4522  1.3432 -0.2307
 9015SOL     OW28485   5.205   7.467   0.017  0.3264  0.3773 -0.4943
 9015SOL    HW128486   5.227   7.546   0.066  0.7280  0.0371 -0.1093
 9015SOL    HW228487   5.257   7.474  -0.063 -0.7852  1.2241 -1.1746
 9016SOL     OW28488   3.641   0.711   4.799  0.4155 -0.0554  0.3973
 9016SOL    HW128489   3.729   0.714   4.761  0.3220 -0.9265  0.0896
 9016SOL    HW228490   3.653   0.738   4.890  1.1394 -0.9350  0.5769
 9017SOL     OW28491   6.681   2.597  10.599 -0.4982 -0.4124  0.0465
 9017SOL    HW128492   6.602   2.640  10.629 -0.4579  0.3218 -0.8658
 9017SOL    HW228493   6.650   2.531  10.536 -0.4465 -0.7242  0.3439
 9018SOL     OW28494   3.399   5.135  10.828 -0.0576  0.0007 -0.0956
 9018SOL    HW128495   3.488   5.122  10.795  0.2350  0.3174  0.5375
 9018SOL    HW228496   3.368   5.214  10.783  0.6048  0.8478  0.8813
 9019SOL     OW28497   5.544   0.181   0.079  0.2459  0.1598 -0.6403
 9019SOL    HW128498   5.614   0.158   0.140 -0.3438 -0.0942 -0.0352
 9019SOL    HW228499   5.563   0.130   0.000  1.6423  1.3543 -1.1146
 9020SOL     OW28500   3.660   5.894   0.115  0.3642 -0.0412 -0.5709
 9020SOL    HW128501   3.591   5.832   0.090  0.9547 -0.7590 -0.4869
 9020SOL    HW228502   3.664   5.888   0.210  0.2257  0.3435 -0.5432
 9021SOL     OW28503   3.864   1.441  11.048  0.1084  0.1976 -0.4039
 9021SOL    HW128504   3.831   1.360  11.086 -0.2473  0.8223  0.6812
 9021SOL    HW228505   3.866   1.502  11.122 -1.0558  1.6174 -1.4994
 9022SOL     OW28506   7.708   5.033   1.395  0.1792 -0.0589 -0.6262
 9022SOL    HW128507   7.791   5.081   1.401  0.4725 -0.7018  2.1171
 9022SOL    HW228508   7.732   4.942   1.416 -1.2521 -0.1452  0.8576
 9023SOL     OW28509   7.285   7.699   9.690  0.1196  0.4706  0.0680
 9023SOL    HW128510   7.276   7.759   9.764 -0.3776 -0.4475  0.7684
 9023SOL    HW228511   7.197   7.694   9.653  0.8336  2.9736 -2.2717
 9024SOL     OW28512   5.906   6.175   2.626  0.1604  0.0855 -0.1567
 9024SOL    HW128513   5.911   6.244   2.560 -2.2193  0.7950  0.2886
 9024SOL    HW228514   5.879   6.097   2.578  1.1907 -0.1291 -0.4072
 9025SOL     OW28515   0.777   7.464   2.040 -0.3126 -0.5536  0.7416
 9025SOL    HW128516   0.753   7.377   2.009 -1.8813  0.5279 -1.3750
 9025SOL    HW228517   0.866   7.478   2.007  0.1231 -1.4962  1.4898
 9026SOL     OW28518   2.844   2.729   1.619 -0.2077  0.2643 -0.0864
 9026SOL    HW128519   2.838   2.825   1.611  2.3113  0.4483 -0.5903
 9026SOL    HW228520   2.919   2.715   1.677 -0.2432 -1.4293 -0.4199
 9027SOL     OW28521   0.666   6.904   3.363 -0.0649 -0.3947  0.4291
 9027SOL    HW128522   0.690   6.883   3.273  0.2602 -0.0935  0.4401
 9027SOL    HW228523   0.649   6.819   3.404  0.5532 -0.5893  0.2939
 9028SOL     OW28524   5.050   1.551   5.138  0.2001  0.2433 -0.6181
 9028SOL    HW128525   4.972   1.550   5.082  0.1047  1.1105 -0.5146
 9028SOL    HW228526   5.112   1.494   5.094 -0.3303 -0.0848 -0.9483
 9029SOL     OW28527   0.423   0.764   2.366  0.2371  0.0202  0.5616
 9029SOL    HW128528   0.429   0.776   2.461  1.5504  0.2482  0.4630
 9029SOL    HW228529   0.512   0.778   2.334 -0.4225  1.2294 -0.8601
 9030SOL     OW28530   5.036   6.893   8.712  0.0947  0.4159 -0.0766
 9030SOL    HW128531   4.943   6.919   8.714 -0.7946 -2.4231  1.7362
 9030SOL    HW228532   5.047   6.850   8.627 -0.6337 -0.3526  0.2036
 9031SOL     OW28533   5.037   4.391   7.387  0.1147 -0.4830  0.3627
 9031SOL    HW128534   4.967   4.326   7.384  0.7266 -1.0923 -1.6071
 9031SOL    HW228535   4.995   4.473   7.359 -0.1970 -0.4470  0.9146
 9032SOL     OW28536   3.716   6.260   5.950  0.6594 -0.0928  0.1183
 9032SOL    HW128537   3.650   6.321   5.982  1.8784  2.0411 -1.1651
 9032SOL    HW228538   3.668   6.179   5.932 -1.4280  1.1122  0.0121
 9033SOL     OW28539   6.914   0.468   1.019 -0.0864 -0.1494  0.0487
 9033SOL    HW128540   6.964   0.542   0.985 -0.4297  0.1185  0.1206
 9033SOL    HW228541   6.824   0.486   0.992 -0.6375  0.7846  2.2320
 9034SOL     OW28542   1.643   2.259   1.016 -0.0849 -0.2780  0.0418
 9034SOL    HW128543   1.676   2.346   0.997 -0.6150  0.0828  0.6904
 9034SOL    HW228544   1.627   2.260   1.111 -2.2952 -0.2749 -0.2728
 9035SOL     OW28545   5.434   2.015   7.830  0.4985 -0.5681  0.2717
 9035SOL    HW128546   5.403   2.050   7.914 -1.9228 -0.1734 -0.6883
 9035SOL    HW228547   5.468   1.929   7.852 -0.6696 -0.7403  1.5975
 9036SOL     OW28548   7.971   2.225   3.450 -0.2743 -0.1146  0.3395
 9036SOL    HW128549   7.885   2.266   3.444 -0.5804 -0.3238  2.5378
 9036SOL    HW228550   8.023   2.285   3.502  0.5271 -0.5949  0.1110
 9037SOL     OW28551   1.967   0.099   9.808  0.2377 -0.0986 -0.2178
 9037SOL    HW128552   2.051   0.092   9.854 -0.6648 -1.1193  1.3474
 9037SOL    HW228553   1.985   0.066   9.720  1.7597  0.9391 -0.3442
 9038SOL     OW28554   3.602   2.321   8.772 -0.0927  0.2397 -0.2874
 9038SOL    HW128555   3.592   2.228   8.749 -0.1960 -0.2471  1.5355
 9038SOL    HW228556   3.530   2.365   8.727 -1.0167 -0.8214  0.0965
 9039SOL     OW28557   4.783   6.539  11.651 -0.3039  0.0985  0.2863
 9039SOL    HW128558   4.726   6.577  11.584 -0.1027 -2.3945 -1.4256
 9039SOL    HW228559   4.727   6.476  11.697  0.2597 -0.1313  0.6693
 9040SOL     OW28560   6.532   7.690   4.377 -0.1622 -0.1263 -0.0885
 9040SOL    HW128561   6.597   7.751   4.413 -0.7387 -0.7487  2.1867
 9040SOL    HW228562   6.458   7.746   4.352 -0.0044  0.2875  0.3424
 9041SOL     OW28563   2.756   7.392  11.111 -0.2318  0.3446 -0.6396
 9041SOL    HW128564   2.844   7.418  11.138 -0.0614  0.2102 -1.0587
 9041SOL    HW228565   2.770   7.320  11.049 -0.6903 -0.8228  0.5521
 9042SOL     OW28566   3.219   2.112   2.412  0.2101 -0.0691  0.9499
 9042SOL    HW128567   3.308   2.083   2.390  0.7080  1.5349  0.6652
 9042SOL    HW228568   3.233   2.180   2.478 -0.8275  0.1019  1.0050
 9043SOL     OW28569   5.656   4.619  12.190 -0.2735  0.2399  0.0623
 9043SOL    HW128570   5.627   4.581  12.273 -0.8182 -0.5150 -0.4580
 9043SOL    HW228571   5.704   4.548  12.147  1.6783  1.2070  0.5397
 9044SOL     OW28572   3.516   5.600   0.979  0.5819  0.1791 -0.4675
 9044SOL    HW128573   3.565   5.589   0.898 -0.3910 -0.5459 -0.9859
 9044SOL    HW228574   3.538   5.522   1.031  0.3503  0.0864 -0.5065
 9045SOL     OW28575   4.559   2.151   8.216 -0.0218  0.3594  0.0756
 9045SOL    HW128576   4.654   2.155   8.200 -0.3454  0.3886 -2.0836
 9045SOL    HW228577   4.538   2.238   8.251  0.2595  1.7097 -2.8043
 9046SOL     OW28578   7.468   4.160   5.564 -0.4968  0.2696  0.6805
 9046SOL    HW128579   7.504   4.172   5.651  2.2807  0.2198 -0.3814
 9046SOL    HW228580   7.481   4.244   5.520 -0.0736 -0.2870 -0.2900
 9047SOL     OW28581   3.649   7.562   8.006 -0.1911 -0.2121  0.3563
 9047SOL    HW128582   3.663   7.602   7.920  2.4528 -0.1008  0.7676
 9047SOL    HW228583   3.632   7.469   7.987  0.9045 -0.2968 -0.2908
 9048SOL     OW28584   4.391   3.581   4.593  0.5685 -0.2306 -0.6380
 9048SOL    HW128585   4.310   3.536   4.567  1.5042 -2.0856 -0.5081
 9048SOL    HW228586   4.455   3.510   4.604  2.1557  1.1729 -0.5129
 9049SOL     OW28587   2.140   7.536   5.792  0.0673 -0.2675  0.2562
 9049SOL    HW128588   2.104   7.568   5.875  0.6763 -0.1284  0.4689
 9049SOL    HW228589   2.138   7.611   5.734 -0.3459 -0.3611  0.1442
 9050SOL     OW28590   4.117   5.541   3.664 -0.1194 -0.2578  0.4531
 9050SOL    HW128591   4.203   5.536   3.622  0.5561  1.9354  1.4407
 9050SOL    HW228592   4.081   5.624   3.634 -2.1697 -1.3770 -0.3587
 9051SOL     OW28593   7.477   2.178   1.143 -0.6484  0.0169  0.1276
 9051SOL    HW128594   7.501   2.102   1.197 -2.3582  0.0890  1.0518
 9051SOL    HW228595   7.454   2.246   1.207  1.2192  1.4961 -0.6753
 9052SOL     OW28596   5.960   3.374   5.647  0.4161 -0.9633  0.0402
 9052SOL    HW128597   6.050   3.366   5.679  0.9594 -1.2536 -1.4610
 9052SOL    HW228598   5.955   3.313   5.574 -1.1502 -1.2705  0.3722
 9053SOL     OW28599   0.125   6.413  10.499 -0.5924 -0.0748 -0.2544
 9053SOL    HW128600   0.076   6.333  10.482  0.1646 -0.4370 -0.8222
 9053SOL    HW228601   0.124   6.460  10.415  2.3837 -1.4289 -1.1750
 9054SOL     OW28602   7.328   6.318   7.767 -0.0296  0.6417 -0.0683
 9054SOL    HW128603   7.344   6.265   7.845 -1.2061  1.6131  0.8717
 9054SOL    HW228604   7.233   6.321   7.758  0.0779  0.7351 -1.4282
 9055SOL     OW28605   1.262   3.739   9.932 -0.2339  0.6791  0.4071
 9055SOL    HW128606   1.187   3.732   9.874  0.6523  0.0807 -0.7140
 9055SOL    HW228607   1.330   3.782   9.880  1.1518 -1.3960  0.3290
 9056SOL     OW28608   6.525   5.353   8.067  0.1498 -0.5617 -0.0062
 9056SOL    HW128609   6.463   5.314   8.005 -0.9336  1.1201 -0.0526
 9056SOL    HW228610   6.540   5.442   8.033  1.4945 -0.4650  0.7933
 9057SOL     OW28611   4.291   4.338   0.279 -0.5596 -0.1352 -0.5622
 9057SOL    HW128612   4.267   4.399   0.349  1.7171 -2.5573  2.6248
 9057SOL    HW228613   4.352   4.387   0.224  0.8426  0.7274  1.6261
 9058SOL     OW28614   5.107   7.951   2.459  0.1597 -0.1293  0.2458
 9058SOL    HW128615   5.161   7.886   2.414 -1.9910 -0.5871 -1.8590
 9058SOL    HW228616   5.140   8.035   2.428  0.7534 -0.3330  0.3098
 9059SOL     OW28617   6.180   4.789   9.720  0.2163 -0.0060 -0.5911
 9059SOL    HW128618   6.208   4.698   9.716 -1.7619 -0.6402 -0.7870
 9059SOL    HW228619   6.184   4.812   9.813 -0.7941 -0.8193 -0.3291
 9060SOL     OW28620   7.971   2.176   3.871 -0.0029  0.1197  0.1352
 9060SOL    HW128621   8.035   2.142   3.807 -0.4442  2.4046 -1.6484
 9060SOL    HW228622   8.025   2.212   3.941  0.5608 -0.6087  0.0974
 9061SOL     OW28623   3.978   0.681   9.256  0.0970  0.5667  0.0150
 9061SOL    HW128624   3.887   0.711   9.255 -0.1274  0.0041  1.2714
 9061SOL    HW228625   4.007   0.697   9.346  0.5723 -1.1871  0.1987
 9062SOL     OW28626   2.513   5.961   4.593 -0.0840  0.1462  0.2953
 9062SOL    HW128627   2.439   5.978   4.534  0.1510  0.7460  0.1610
 9062SOL    HW228628   2.578   5.919   4.537 -0.0719  0.2184  0.2542
 9063SOL     OW28629   4.435   5.683  11.145  0.3745  0.1819  0.5880
 9063SOL    HW128630   4.381   5.613  11.110 -1.1292  0.3832  2.3107
 9063SOL    HW228631   4.414   5.684  11.239  3.3142  0.3739  1.3372
 9064SOL     OW28632   3.788   0.506  12.083 -0.2731  0.6063  0.0108
 9064SOL    HW128633   3.733   0.445  12.035 -0.3527  1.2164 -0.7044
 9064SOL    HW228634   3.737   0.588  12.085  0.1394  0.8623  0.3037
 9065SOL     OW28635   0.495   7.320   6.651  0.4894  0.0754  0.4619
 9065SOL    HW128636   0.568   7.327   6.589  0.3787 -2.7954 -0.1804
 9065SOL    HW228637   0.420   7.356   6.603  1.0393  0.9389  0.2309
 9066SOL     OW28638   1.022   7.356  10.532  0.1574  0.1690 -0.6980
 9066SOL    HW128639   1.030   7.289  10.599 -2.4277  0.9457  0.5149
 9066SOL    HW228640   1.095   7.416  10.549  0.9370 -0.9007 -0.1434
 9067SOL     OW28641   3.828   0.587   0.255  0.2443  0.6792 -0.6448
 9067SOL    HW128642   3.866   0.657   0.202 -0.8405  1.1246 -0.8640
 9067SOL    HW228643   3.748   0.626   0.292 -0.4494 -0.4793 -0.8818
 9068SOL     OW28644   5.179   1.824   9.792  0.2002 -0.0512 -0.0046
 9068SOL    HW128645   5.231   1.833   9.712 -0.4910 -2.1407 -0.7501
 9068SOL    HW228646   5.240   1.786   9.856 -0.2279 -2.2920 -0.8147
 9069SOL     OW28647   5.672   1.763   9.980  0.6734  0.0231 -0.5588
 9069SOL    HW128648   5.646   1.728   9.895  3.1058  0.2933 -1.5051
 9069SOL    HW228649   5.632   1.850   9.984 -0.5149 -0.4966 -0.8314
 9070SOL     OW28650   6.412   4.844   2.660 -0.0914 -0.0350 -1.2206
 9070SOL    HW128651   6.430   4.781   2.591  0.0491  0.8067 -1.9843
 9070SOL    HW228652   6.470   4.918   2.640  0.9030 -0.2720  0.5385
 9071SOL     OW28653   2.431   3.708   0.999  0.8235 -0.1015  0.5031
 9071SOL    HW128654   2.467   3.628   1.036  0.6127 -0.4638 -0.0717
 9071SOL    HW228655   2.338   3.690   0.987  1.2949 -0.9315 -2.5788
 9072SOL     OW28656   2.570   7.129   4.296  0.1376  0.2025 -0.2981
 9072SOL    HW128657   2.658   7.164   4.290  0.4049 -0.5578 -1.0364
 9072SOL    HW228658   2.576   7.041   4.259 -1.3095  0.8542 -2.2856
 9073SOL     OW28659   4.905   7.549   0.398 -0.0061 -0.1783 -0.1158
 9073SOL    HW128660   4.853   7.592   0.331  0.5015 -0.0769 -0.4460
 9073SOL    HW228661   4.853   7.558   0.478 -0.1638  0.5533 -0.2952
 9074SOL     OW28662   2.636   1.870   5.084  0.1020 -0.2639  0.3939
 9074SOL    HW128663   2.578   1.898   5.013 -0.0364  1.1396  1.0206
 9074SOL    HW228664   2.628   1.939   5.150  0.7902 -1.1664  1.4632
 9075SOL     OW28665   7.678   6.200  11.729  0.1787 -0.2964 -0.1602
 9075SOL    HW128666   7.655   6.174  11.640 -2.0558  0.3230  0.1854
 9075SOL    HW228667   7.730   6.127  11.763  1.4816 -0.3563 -2.0756
 9076SOL     OW28668   0.726   6.497  10.182  0.4391  0.0896  0.0612
 9076SOL    HW128669   0.773   6.544  10.250  0.4321 -1.3663  1.1194
 9076SOL    HW228670   0.774   6.415  10.172  1.1612  0.7272 -2.5832
 9077SOL     OW28671   7.865   7.182   7.884 -0.4255 -0.5023  0.2155
 9077SOL    HW128672   7.829   7.179   7.973  1.3284 -2.2303  0.9527
 9077SOL    HW228673   7.830   7.104   7.842  0.9476 -1.2221  0.3553
 9078SOL     OW28674   1.984   3.586  12.444 -0.3115 -0.0879  0.5837
 9078SOL    HW128675   1.896   3.601  12.412 -0.4442 -0.2759  0.8523
 9078SOL    HW228676   1.995   3.650  12.515 -0.2723 -0.1345  0.6200
 9079SOL     OW28677   2.867   2.137   9.473  0.0632  0.3863 -0.3874
 9079SOL    HW128678   2.875   2.233   9.477 -1.2330  0.6359 -2.1957
 9079SOL    HW228679   2.818   2.114   9.551  0.7283  1.1363  0.2750
 9080SOL     OW28680   6.855   2.842   0.736 -0.4640 -0.3257 -0.4426
 9080SOL    HW128681   6.916   2.769   0.743 -0.7580 -0.5359 -0.0935
 9080SOL    HW228682   6.880   2.901   0.807 -0.3677 -0.1881 -0.5888
 9081SOL     OW28683   0.259   6.809  10.273 -0.2324 -0.1841  0.2254
 9081SOL    HW128684   0.251   6.893  10.319 -3.3583 -0.3796  0.2363
 9081SOL    HW228685   0.294   6.749  10.339 -0.6607  0.4881  1.0854
 9082SOL     OW28686   2.004   7.641   3.713 -0.5576  0.1299  0.1618
 9082SOL    HW128687   1.932   7.685   3.667 -1.6749  1.0783  2.6091
 9082SOL    HW228688   2.083   7.688   3.685 -1.2306  0.9391 -0.4489
 9083SOL     OW28689   3.936   1.072  12.035 -0.4255  0.2761  0.0024
 9083SOL    HW128690   3.954   1.163  12.056 -1.3216  0.2990  0.6914
 9083SOL    HW228691   3.925   1.071  11.939  0.7100  0.6780 -0.1499
 9084SOL     OW28692   0.907   5.138   7.437 -0.1374 -0.1970 -0.4429
 9084SOL    HW128693   0.886   5.107   7.348 -1.4572 -1.3564  0.2312
 9084SOL    HW228694   0.837   5.102   7.492  1.2043 -0.3715  1.2361
 9085SOL     OW28695   6.203   4.208   2.162  0.0752  0.1630 -0.3707
 9085SOL    HW128696   6.165   4.226   2.076 -1.9341 -0.4397  0.3219
 9085SOL    HW228697   6.138   4.240   2.224  2.2108  2.1192  1.0199
 9086SOL     OW28698   4.033   6.759  11.861  0.5346  0.0314 -0.0886
 9086SOL    HW128699   4.033   6.685  11.800  0.1344  1.0966 -1.4113
 9086SOL    HW228700   4.010   6.720  11.945  2.1017 -1.6468 -0.3593
 9087SOL     OW28701   5.435   5.297   5.687 -0.4410 -0.1393  0.1865
 9087SOL    HW128702   5.444   5.358   5.613  0.1998 -1.5735 -0.9560
 9087SOL    HW228703   5.347   5.314   5.721 -1.3703 -0.4972 -1.8921
 9088SOL     OW28704   3.172   0.915   1.233 -0.4887 -0.3970  0.0206
 9088SOL    HW128705   3.081   0.898   1.258 -0.6986  0.4485 -0.1614
 9088SOL    HW228706   3.170   1.001   1.191 -0.0153 -1.4401 -2.2471
 9089SOL     OW28707   0.658   5.054   2.441 -0.2959 -0.5673 -0.1474
 9089SOL    HW128708   0.626   4.965   2.429 -0.4311 -0.5051 -0.2449
 9089SOL    HW228709   0.705   5.052   2.525  1.6642 -1.3004 -1.2039
 9090SOL     OW28710   4.745   3.129  10.391  0.3701  0.4375  0.2050
 9090SOL    HW128711   4.662   3.168  10.416  0.6879  1.0804  0.2822
 9090SOL    HW228712   4.780   3.188  10.324  0.6441  0.0303 -0.0149
 9091SOL     OW28713   2.381   5.959  11.865 -0.3209  0.2103 -0.2695
 9091SOL    HW128714   2.386   6.053  11.879 -0.4051  0.0172  1.2444
 9091SOL    HW228715   2.379   5.922  11.953 -0.1918 -1.2151 -0.8420
 9092SOL     OW28716   1.146   1.336  11.468 -0.7005  0.6444  0.3434
 9092SOL    HW128717   1.178   1.426  11.463  0.1131  0.3806  0.7298
 9092SOL    HW228718   1.144   1.317  11.562  0.1988 -0.1162  0.2207
 9093SOL     OW28719   7.208   5.959   9.417  1.0497  0.3094  0.3002
 9093SOL    HW128720   7.113   5.957   9.431  1.0401  0.3576  0.2428
 9093SOL    HW228721   7.234   6.049   9.441  1.0382  0.3818  0.0400
 9094SOL     OW28722   2.885   5.637   4.029 -0.4731  0.2414 -0.2331
 9094SOL    HW128723   2.893   5.662   4.121  0.0326  0.8695 -0.4338
 9094SOL    HW228724   2.942   5.560   4.020  1.5370  1.6729 -0.5410
 9095SOL     OW28725   7.774   2.396   1.140 -0.0974  0.3123  0.1480
 9095SOL    HW128726   7.801   2.331   1.075  0.7553 -0.3108  1.0907
 9095SOL    HW228727   7.696   2.436   1.102 -2.1262 -2.8732  0.5384
 9096SOL     OW28728   5.442   6.165   7.063  0.3248  0.3350  0.0751
 9096SOL    HW128729   5.533   6.137   7.076 -0.2116 -1.7841 -0.3254
 9096SOL    HW228730   5.420   6.213   7.142  1.7939  0.9056  0.1673
 9097SOL     OW28731   6.517   6.989   3.599  0.6913 -0.1318 -0.0551
 9097SOL    HW128732   6.476   7.044   3.665  3.2658  0.7267  0.9267
 9097SOL    HW228733   6.444   6.941   3.559 -1.3023  1.8065  1.0646
 9098SOL     OW28734   3.933   1.419   0.619  0.1593  0.1573  0.0486
 9098SOL    HW128735   4.019   1.436   0.580  0.8769 -0.2701  1.3784
 9098SOL    HW228736   3.952   1.391   0.709 -1.4230  1.3925  0.8285
 9099SOL     OW28737   6.515   4.882   8.300  1.0967 -0.1370 -0.2692
 9099SOL    HW128738   6.464   4.933   8.237  2.4294  0.0510 -1.2479
 9099SOL    HW228739   6.604   4.882   8.264  1.9979  0.3077  1.8169
 9100SOL     OW28740   3.517   3.880   7.777 -0.1590  0.1304 -0.0543
 9100SOL    HW128741   3.441   3.824   7.792 -1.2254  1.0935 -1.5232
 9100SOL    HW228742   3.581   3.853   7.843 -1.8066 -0.6372  1.2972
 9101SOL     OW28743   3.427   4.723   1.885  0.1429 -0.6397  0.2349
 9101SOL    HW128744   3.429   4.639   1.839 -0.4221 -0.3679 -0.3023
 9101SOL    HW228745   3.510   4.726   1.933  0.5470 -1.1345 -0.4085
 9102SOL     OW28746   5.675   4.971   7.241  0.4443  0.5611 -0.3321
 9102SOL    HW128747   5.579   4.978   7.241  0.3885  0.1360 -1.7006
 9102SOL    HW228748   5.692   4.882   7.272  0.4259  0.8132  0.4142
 9103SOL     OW28749   5.748   2.406   2.191  0.2602  0.5435 -0.9289
 9103SOL    HW128750   5.673   2.431   2.137 -0.1690 -0.3369 -0.7552
 9103SOL    HW228751   5.800   2.350   2.135 -0.6446 -1.1180 -0.1956
 9104SOL     OW28752   4.091   5.811   7.972 -0.4650 -0.3409  0.5824
 9104SOL    HW128753   4.175   5.842   8.007 -0.3210  0.3594 -0.3361
 9104SOL    HW228754   4.034   5.889   7.975 -1.4298 -1.0623  2.1820
 9105SOL     OW28755   1.605   3.202   7.208  0.2605 -0.2006  0.0413
 9105SOL    HW128756   1.622   3.204   7.302  0.3899  1.1800  0.0189
 9105SOL    HW228757   1.510   3.212   7.200  0.4707  2.7938  0.0366
 9106SOL     OW28758   1.052   6.970   6.353  0.1600  0.5036  0.7917
 9106SOL    HW128759   1.104   6.969   6.433  1.0934  1.7009  0.2204
 9106SOL    HW228760   1.017   7.059   6.347  1.5218  0.9744 -0.9920
 9107SOL     OW28761   5.833   2.182  12.364 -0.1214  0.3874 -0.2583
 9107SOL    HW128762   5.746   2.159  12.332  0.7674 -2.4445 -0.8625
 9107SOL    HW228763   5.817   2.238  12.440 -2.4634 -0.4041 -0.1126
 9108SOL     OW28764   5.372   3.455   7.799 -0.5435  0.4881 -0.5998
 9108SOL    HW128765   5.354   3.545   7.823 -0.1468  0.2021  0.8830
 9108SOL    HW228766   5.361   3.452   7.704 -2.7287  1.5809 -0.4409
 9109SOL     OW28767   3.370   0.171   2.712 -0.5668  0.7177 -0.3709
 9109SOL    HW128768   3.452   0.149   2.668 -0.3682  0.7525 -0.0238
 9109SOL    HW228769   3.321   0.222   2.648  0.0474  1.4435 -0.2785
 9110SOL     OW28770   2.099   3.168   9.215  0.3391  0.0463  0.9395
 9110SOL    HW128771   2.133   3.207   9.295 -3.3360 -0.3302  2.9411
 9110SOL    HW228772   2.084   3.076   9.237 -2.1303  0.2510  0.4662
 9111SOL     OW28773   4.324   1.604  12.261  0.1775  0.4444  0.0500
 9111SOL    HW128774   4.344   1.698  12.262  0.1112  0.4611  0.6632
 9111SOL    HW228775   4.229   1.600  12.271  0.1619  0.3137 -0.1502
 9112SOL     OW28776   7.338   1.316   4.871  0.0898 -0.8318  0.5776
 9112SOL    HW128777   7.365   1.371   4.797  1.2619 -0.2295  1.4284
 9112SOL    HW228778   7.408   1.325   4.935 -0.8839 -1.3690  1.7611
 9113SOL     OW28779   4.240   0.879   1.346 -0.3274  0.9186  0.0251
 9113SOL    HW128780   4.201   0.922   1.422 -0.2723 -2.0327  1.9072
 9113SOL    HW228781   4.334   0.883   1.362 -0.3118  0.3743  0.1111
 9114SOL     OW28782   0.098   7.014   0.066  0.5835  0.5178  0.0821
 9114SOL    HW128783   0.062   6.926   0.052  0.0658  0.5178  1.3206
 9114SOL    HW228784   0.022   7.070   0.072  0.8987  0.9676 -0.0790
 9115SOL     OW28785   1.444   2.157  10.765 -0.2452  0.9280 -0.4351
 9115SOL    HW128786   1.539   2.153  10.756 -0.0153  0.1581  1.7849
 9115SOL    HW228787   1.411   2.110  10.688  1.1526  0.9922 -1.1099
 9116SOL     OW28788   6.260   5.669   3.222 -0.0522  0.2749  0.0283
 9116SOL    HW128789   6.287   5.581   3.195  3.2602  1.0579  0.4686
 9116SOL    HW228790   6.267   5.722   3.143  2.2463  0.9802  0.6386
 9117SOL     OW28791   0.448   1.768  10.582  0.0134 -0.2352  0.1486
 9117SOL    HW128792   0.403   1.767  10.498 -1.4185 -0.7856  0.8934
 9117SOL    HW228793   0.396   1.711  10.639  0.0944  1.2595  1.8313
 9118SOL     OW28794   0.694   1.924   0.131  0.0840 -0.3955 -0.2247
 9118SOL    HW128795   0.718   1.863   0.061  1.1415  0.8775 -1.0197
 9118SOL    HW228796   0.598   1.927   0.129  0.0844 -0.7510 -1.3086
 9119SOL     OW28797   1.981   5.309   8.827  0.5889 -0.2062 -0.4684
 9119SOL    HW128798   1.969   5.400   8.854  1.8012 -0.5336  1.3854
 9119SOL    HW228799   2.073   5.302   8.804 -0.2548 -0.0959 -4.5907
 9120SOL     OW28800   1.561   6.489   0.983  0.7486  0.7401 -0.0427
 9120SOL    HW128801   1.645   6.533   0.977  1.9305 -0.6585  3.3299
 9120SOL    HW228802   1.573   6.407   0.935  0.1762  1.8816 -2.2201
 9121SOL     OW28803   6.725   7.057  12.262  0.7876 -0.1958 -0.3821
 9121SOL    HW128804   6.805   7.025  12.304 -0.7224  0.2202  3.2289
 9121SOL    HW228805   6.752   7.133  12.211  2.8405 -0.7561 -0.1917
 9122SOL     OW28806   3.127   2.943  10.690 -0.6925 -0.1636  0.1721
 9122SOL    HW128807   3.203   2.885  10.694 -1.3968 -1.0642  1.6718
 9122SOL    HW228808   3.154   3.021  10.739 -0.7166 -0.4922  0.7236
 9123SOL     OW28809   5.786   2.892   1.705 -0.0339 -0.5592  0.6356
 9123SOL    HW128810   5.870   2.931   1.729  0.6083 -0.2167 -1.9481
 9123SOL    HW228811   5.798   2.798   1.719  0.1158 -0.3486  2.0433
 9124SOL     OW28812   6.253   0.011   6.835  0.0732 -0.6005  0.1460
 9124SOL    HW128813   6.240  -0.076   6.874  2.3493 -1.4632 -0.8660
 9124SOL    HW228814   6.346   0.015   6.815  0.0470  2.1227  0.1750
 9125SOL     OW28815   0.105   1.715  12.210  0.5036  0.6231 -0.6283
 9125SOL    HW128816   0.096   1.639  12.152 -0.1974  1.6868 -1.9660
 9125SOL    HW228817   0.174   1.768  12.170 -0.0171  1.3924 -0.5348
 9126SOL     OW28818   6.206   0.626   2.964 -0.0795  0.2239  0.6021
 9126SOL    HW128819   6.226   0.648   2.873  2.0472  1.0992  1.2193
 9126SOL    HW228820   6.163   0.704   2.998 -0.4679  0.0696  0.4645
 9127SOL     OW28821   7.740   1.068   8.320 -0.1024 -0.1858 -0.0428
 9127SOL    HW128822   7.793   1.084   8.242  1.2122 -0.3229  0.7896
 9127SOL    HW228823   7.751   0.974   8.338  1.7272  0.2890  1.7393
 9128SOL     OW28824   1.032   4.571   0.741 -0.0992  0.3254  1.0615
 9128SOL    HW128825   0.970   4.506   0.772 -2.0764  0.8820 -1.4354
 9128SOL    HW228826   0.988   4.655   0.753  0.0902  0.7335 -0.7665
 9129SOL     OW28827   3.083   1.816  11.800 -0.1884 -0.1911  0.1117
 9129SOL    HW128828   3.155   1.777  11.850 -1.1835 -1.8768  0.3050
 9129SOL    HW228829   3.054   1.746  11.741 -0.7692  0.9082 -0.9432
 9130SOL     OW28830   1.946   1.711   3.487 -0.4563 -0.0646 -0.1031
 9130SOL    HW128831   1.923   1.720   3.395 -0.3170 -0.4094 -0.1712
 9130SOL    HW228832   1.874   1.660   3.525 -0.1631 -0.5310 -0.1689
 9131SOL     OW28833   7.206   3.150   8.232  0.1103 -0.1149 -0.2067
 9131SOL    HW128834   7.131   3.194   8.273  1.0553  1.4442 -0.0664
 9131SOL    HW228835   7.197   3.168   8.139 -0.1392 -0.6549 -0.2900
 9132SOL     OW28836   4.917   7.400  11.841  0.2347  0.3799  0.4404
 9132SOL    HW128837   4.902   7.344  11.918 -0.4895 -1.8576 -1.2318
 9132SOL    HW228838   4.840   7.386  11.786  2.5180 -1.4346 -2.6022
 9133SOL     OW28839   1.700   7.922   6.075  0.4158 -0.0147  0.0501
 9133SOL    HW128840   1.640   7.848   6.070  0.7039 -0.2368 -0.1463
 9133SOL    HW228841   1.742   7.914   6.160  0.2752  0.0589  0.1272
 9134SOL     OW28842   0.947   7.318   2.766  0.0667 -0.3605 -0.0710
 9134SOL    HW128843   0.947   7.388   2.700  1.0297  0.8205  1.1298
 9134SOL    HW228844   0.883   7.345   2.831  0.5087 -0.5356  0.4503
 9135SOL     OW28845   2.497   6.354   8.473 -0.2139  0.8567 -0.0084
 9135SOL    HW128846   2.530   6.347   8.563 -0.5715 -0.3515  0.0440
 9135SOL    HW228847   2.563   6.310   8.420 -0.0505  1.4852 -0.3463
 9136SOL     OW28848   3.937   2.314   5.581  0.8815 -0.2249  0.3811
 9136SOL    HW128849   3.875   2.282   5.646 -1.8338 -0.2796 -2.0518
 9136SOL    HW228850   3.926   2.410   5.583 -0.6517 -0.3259 -1.2202
 9137SOL     OW28851   3.816   3.791  12.087 -0.0843 -0.4744 -0.5237
 9137SOL    HW128852   3.789   3.836  12.167 -0.6524 -2.7757  0.6798
 9137SOL    HW228853   3.909   3.812  12.078 -0.4823  1.5054 -0.4902
 9138SOL     OW28854   6.644   3.631   6.672 -0.2902 -0.1655 -0.3653
 9138SOL    HW128855   6.576   3.667   6.616  0.0704  1.7060  0.3350
 9138SOL    HW228856   6.725   3.672   6.642  0.0362  0.1992  0.9122
 9139SOL     OW28857   0.271   0.796   9.153 -0.2372  0.0200 -0.3235
 9139SOL    HW128858   0.351   0.843   9.177 -0.8419  1.9683 -1.8304
 9139SOL    HW228859   0.301   0.728   9.092  0.2984  0.7504 -0.9062
 9140SOL     OW28860   3.758   3.505   8.053 -0.5123  0.6152  0.3266
 9140SOL    HW128861   3.838   3.474   8.095  1.1514  0.1781 -2.8803
 9140SOL    HW228862   3.701   3.428   8.049  0.7378 -0.2863 -1.2334
 9141SOL     OW28863   4.708   4.713   8.810  0.1048 -0.1008 -0.4582
 9141SOL    HW128864   4.700   4.800   8.849 -0.5801  0.0146 -0.8335
 9141SOL    HW228865   4.620   4.675   8.818  0.5442 -0.9933  0.2346
 9142SOL     OW28866   7.485   5.188   6.848 -0.2271 -0.8370  0.3453
 9142SOL    HW128867   7.554   5.127   6.827 -0.0382 -0.1570 -1.1334
 9142SOL    HW228868   7.436   5.198   6.767 -1.6562 -0.7780  1.1757
 9143SOL     OW28869   2.750   3.321   1.705  0.2589  0.5059 -0.0783
 9143SOL    HW128870   2.746   3.381   1.631  0.5260  1.1872  0.4546
 9143SOL    HW228871   2.665   3.332   1.749 -0.1360 -0.3267 -0.6002
 9144SOL     OW28872   3.155   6.228   4.466  0.3309 -0.0429  0.2907
 9144SOL    HW128873   3.097   6.257   4.395 -0.1069  0.2344  0.7458
 9144SOL    HW228874   3.204   6.307   4.490  1.0281 -0.3180 -0.2055
 9145SOL     OW28875   6.225   0.382   9.823 -0.0341 -0.3226 -0.4604
 9145SOL    HW128876   6.245   0.313   9.887 -0.7691 -1.6310 -1.5900
 9145SOL    HW228877   6.147   0.426   9.859  0.3949 -0.1188  0.2327
 9146SOL     OW28878   0.795   0.451   0.150  0.5840 -0.4427  0.4345
 9146SOL    HW128879   0.775   0.499   0.070  1.3790 -1.5995 -0.4947
 9146SOL    HW228880   0.806   0.518   0.217 -1.0110  0.5017 -0.1988
 9147SOL     OW28881   3.517   0.891   6.627  0.0221 -0.0170 -0.3669
 9147SOL    HW128882   3.588   0.852   6.678 -1.0998  1.2878  2.4394
 9147SOL    HW228883   3.444   0.830   6.639 -0.1421  0.0932 -0.8039
 9148SOL     OW28884   1.609   3.132   8.752 -0.2112  0.0179  0.0313
 9148SOL    HW128885   1.588   3.132   8.846 -1.0656  3.1055 -0.0471
 9148SOL    HW228886   1.703   3.151   8.748 -0.4373  1.2231  0.2702
 9149SOL     OW28887   1.235   4.996   6.144 -0.0393  0.0499 -0.5953
 9149SOL    HW128888   1.324   5.014   6.113 -0.1705  1.2322 -0.3268
 9149SOL    HW228889   1.237   4.904   6.169  1.0058 -0.0406 -0.9419
 9150SOL     OW28890   1.746   3.160   5.894  0.4168 -0.5857  0.5941
 9150SOL    HW128891   1.827   3.198   5.860  0.8857 -0.6710  1.5851
 9150SOL    HW228892   1.772   3.075   5.930 -0.2464 -0.9321  0.2895
 9151SOL     OW28893   2.164   1.024   9.349 -0.6049 -0.3290 -0.4632
 9151SOL    HW128894   2.164   1.033   9.254 -2.2143  0.2614 -0.4415
 9151SOL    HW228895   2.084   1.068   9.377 -0.8298 -1.6269  1.0554
 9152SOL     OW28896   3.829   2.006   5.163 -0.3829 -0.5386  0.4549
 9152SOL    HW128897   3.791   1.963   5.240 -0.5429 -0.2735  0.5262
 9152SOL    HW228898   3.868   2.087   5.197  0.3856 -0.8781  0.4064
 9153SOL     OW28899   3.042   0.765   6.873 -0.2334 -0.3151  0.4094
 9153SOL    HW128900   3.085   0.813   6.802 -1.0719  0.3464  0.3267
 9153SOL    HW228901   3.113   0.720   6.918  0.3756 -0.3227 -0.5271
 9154SOL     OW28902   7.112   4.385   0.933 -0.2201  0.2208 -0.3519
 9154SOL    HW128903   7.188   4.389   0.991  0.1561  0.1132 -0.8313
 9154SOL    HW228904   7.116   4.296   0.896 -0.1386  0.4786 -0.9676
 9155SOL     OW28905   2.023   5.429   8.302 -0.2113 -0.2234 -0.1690
 9155SOL    HW128906   2.031   5.464   8.391 -0.8691 -0.8080  0.1313
 9155SOL    HW228907   2.112   5.403   8.278 -0.0972 -0.4408  0.4760
 9156SOL     OW28908   1.558   3.957   1.715  0.5096  0.5341 -0.4889
 9156SOL    HW128909   1.528   4.040   1.676 -1.8608  0.0300  0.0872
 9156SOL    HW228910   1.540   3.967   1.808 -0.4205 -0.8515 -0.4960
 9157SOL     OW28911   1.803   5.835   5.528 -0.1362 -0.2061  0.6546
 9157SOL    HW128912   1.784   5.855   5.620  2.1924  1.3732  0.8828
 9157SOL    HW228913   1.832   5.744   5.529  0.9657  0.1279  1.6953
 9158SOL     OW28914   2.327   4.616   6.136 -0.3443  0.1594 -0.3124
 9158SOL    HW128915   2.258   4.550   6.143 -1.1412  0.9949 -0.1354
 9158SOL    HW228916   2.357   4.628   6.226  0.6302 -0.7951 -0.4820
 9159SOL     OW28917   3.981   2.363   4.197  0.3182 -0.3423  0.3458
 9159SOL    HW128918   3.932   2.374   4.278 -0.1974 -0.0754  0.0010
 9159SOL    HW228919   4.073   2.364   4.225  0.1289 -1.4559  1.0589
 9160SOL     OW28920   5.244   7.550   8.056 -0.5420  0.1118 -0.0523
 9160SOL    HW128921   5.214   7.609   7.987 -0.9702  0.4726  0.4362
 9160SOL    HW228922   5.307   7.602   8.105  0.5800 -0.4932 -0.7986
 9161SOL     OW28923   5.401   7.474   2.615  0.0280  0.0942 -0.0256
 9161SOL    HW128924   5.340   7.544   2.636  0.5954  0.3597  0.7990
 9161SOL    HW228925   5.378   7.403   2.675  0.2472  0.0314 -0.0152
 9162SOL     OW28926   5.249   5.266  10.623  0.4190  0.3490 -0.5609
 9162SOL    HW128927   5.327   5.216  10.600 -0.3438 -1.0472 -0.1767
 9162SOL    HW228928   5.240   5.256  10.717 -0.6041 -0.0734 -0.6940
 9163SOL     OW28929   1.390   0.689   9.556 -0.1539 -0.2328  0.2690
 9163SOL    HW128930   1.474   0.731   9.570  0.2293 -0.6670 -0.6463
 9163SOL    HW228931   1.346   0.744   9.491 -0.3915 -0.2530  0.4108
 9164SOL     OW28932   2.481   4.119   5.461  0.1416  0.7511 -0.2767
 9164SOL    HW128933   2.525   4.202   5.444 -0.7815  1.5040  0.8711
 9164SOL    HW228934   2.549   4.063   5.499  0.7099  1.0372 -0.8449
 9165SOL     OW28935   1.050   3.675   9.784  0.4813 -0.1137 -0.4314
 9165SOL    HW128936   1.039   3.608   9.717 -0.9773 -1.0001  0.6170
 9165SOL    HW228937   0.978   3.736   9.769  2.5232  2.0338 -2.1765
 9166SOL     OW28938   7.724   6.025  12.386  0.2780 -0.6648 -0.0037
 9166SOL    HW128939   7.760   5.958  12.444 -1.0520 -0.4735  1.0978
 9166SOL    HW228940   7.776   6.103  12.403  0.5294 -0.8815  0.2184
 9167SOL     OW28941   5.673   6.060   3.569 -0.1161  0.1478  0.4091
 9167SOL    HW128942   5.651   6.083   3.659 -0.4663 -1.2001  0.6986
 9167SOL    HW228943   5.765   6.031   3.573 -0.3623 -0.6645  0.5102
 9168SOL     OW28944   5.127   5.842  11.877 -0.3111  0.0616  0.3453
 9168SOL    HW128945   5.155   5.753  11.900  0.7232  0.1376 -0.5632
 9168SOL    HW228946   5.183   5.899  11.931 -0.3466  0.1809  0.2568
 9169SOL     OW28947   6.039   2.928   8.185 -0.3742  0.5019 -0.2446
 9169SOL    HW128948   6.111   2.880   8.223  0.2215 -0.0304 -1.9438
 9169SOL    HW228949   6.079   3.009   8.151 -0.7855  0.7385 -0.1731
 9170SOL     OW28950   2.491   4.631   5.546  0.1394 -0.1125 -0.6649
 9170SOL    HW128951   2.517   4.721   5.562 -0.7881 -0.0889  0.9169
 9170SOL    HW228952   2.405   4.638   5.504 -2.8470 -0.0774  4.5523
 9171SOL     OW28953   3.655   2.414   0.741 -0.1618 -0.5850  0.2112
 9171SOL    HW128954   3.717   2.487   0.738 -1.9552  1.0900  1.0612
 9171SOL    HW228955   3.616   2.413   0.653  1.2088 -1.8264 -0.4151
 9172SOL     OW28956   6.978   7.892  10.164 -0.4721 -0.0824 -0.1876
 9172SOL    HW128957   6.989   7.984  10.186 -0.3344  0.0339 -0.7360
 9172SOL    HW228958   7.055   7.870  10.111 -1.1558 -0.1633 -1.1745
 9173SOL     OW28959   3.216   7.745   6.182  0.2573  0.1960  1.0527
 9173SOL    HW128960   3.135   7.794   6.196  1.0758  1.5525  1.2582
 9173SOL    HW228961   3.241   7.716   6.269 -1.2275 -2.3537  0.7262
 9174SOL     OW28962   7.881   6.526   0.854 -0.0019 -0.0260  0.0087
 9174SOL    HW128963   7.824   6.602   0.851 -1.4353 -1.0536 -0.0108
 9174SOL    HW228964   7.839   6.463   0.795  1.7086 -0.4675 -0.7870
 9175SOL     OW28965   5.831   4.952   1.902  0.0046 -0.4026  0.3192
 9175SOL    HW128966   5.904   4.950   1.840  0.5798 -0.6101  0.9858
 9175SOL    HW228967   5.857   5.018   1.967 -0.4250 -0.4380  0.5288
 9176SOL     OW28968   4.990   4.160   1.907  0.2128 -0.4094  0.0335
 9176SOL    HW128969   5.007   4.203   1.823 -0.5020  1.1957  0.6771
 9176SOL    HW228970   4.935   4.085   1.884  0.0321  0.0019 -0.9375
 9177SOL     OW28971   6.138   7.207  11.507 -0.0543  0.2259  0.3478
 9177SOL    HW128972   6.080   7.130  11.512  0.5137 -0.2564 -0.2755
 9177SOL    HW228973   6.132   7.235  11.416 -0.7267  1.3146  0.7022
 9178SOL     OW28974   4.465   5.833   1.223 -1.1040  0.2169  0.6799
 9178SOL    HW128975   4.456   5.840   1.317  0.8919  0.2934  0.9135
 9178SOL    HW228976   4.556   5.805   1.209 -0.8724  1.6922 -1.2667
 9179SOL     OW28977   4.078   4.863  10.081 -0.1122  0.3268  0.1114
 9179SOL    HW128978   4.080   4.769  10.062  0.0475 -0.1391  2.1627
 9179SOL    HW228979   3.986   4.887  10.075  0.0250  0.4848 -2.1707
 9180SOL     OW28980   7.945   3.251  10.512  0.5718  0.3509 -0.0252
 9180SOL    HW128981   7.884   3.248  10.586  0.8730  1.0011  0.2563
 9180SOL    HW228982   7.912   3.185  10.451 -0.7163  1.0490 -0.1132
 9181SOL     OW28983   4.302   3.492   0.004 -0.2741 -0.7121 -0.7533
 9181SOL    HW128984   4.325   3.584  -0.012 -0.5977 -0.9965 -3.2184
 9181SOL    HW228985   4.212   3.485  -0.025 -0.2484 -1.8323 -0.5909
 9182SOL     OW28986   5.664   1.640   0.804  0.3784  0.6560  0.7634
 9182SOL    HW128987   5.619   1.689   0.737  0.3078 -0.0371  0.2938
 9182SOL    HW228988   5.648   1.689   0.885 -1.7817  0.0963  0.7455
 9183SOL     OW28989   5.797   3.200   9.569 -0.0487  0.5520 -0.1911
 9183SOL    HW128990   5.851   3.123   9.551 -2.3814 -1.2455 -0.0132
 9183SOL    HW228991   5.725   3.193   9.506 -0.0129  3.0013 -0.6063
 9184SOL     OW28992   3.559   1.899   3.963 -0.0858 -0.2313  0.2576
 9184SOL    HW128993   3.564   1.804   3.956  2.8009 -0.0407 -2.4489
 9184SOL    HW228994   3.637   1.931   3.919 -2.3864  3.4902 -1.6946
 9185SOL     OW28995   6.150   0.410  12.293 -0.4078 -1.3042  0.3942
 9185SOL    HW128996   6.174   0.432  12.203 -2.1609  0.5867  0.3193
 9185SOL    HW228997   6.220   0.352  12.323  1.7429  0.2820 -1.2505
 9186SOL     OW28998   6.191   7.350  10.267 -0.0458 -0.3381  0.2866
 9186SOL    HW128999   6.116   7.401  10.235  0.4354  0.4291  0.3782
 9186SOL    HW229000   6.215   7.390  10.350 -0.1114 -1.1747  0.7282
 9187SOL     OW29001   0.040   7.816   3.027  0.3577  0.3109 -0.0692
 9187SOL    HW129002  -0.016   7.878   2.981 -0.2592 -0.6555 -0.6437
 9187SOL    HW229003   0.076   7.867   3.100 -1.2274  0.9795  0.3047
 9188SOL     OW29004   6.444   1.860   8.796 -0.1319 -0.3860  0.0780
 9188SOL    HW129005   6.514   1.886   8.736  0.2156 -0.2577  0.5253
 9188SOL    HW229006   6.415   1.775   8.763  0.4923 -0.6153  0.0916
 9189SOL     OW29007   1.267   1.429  11.742  0.5439  0.4200 -0.3622
 9189SOL    HW129008   1.332   1.462  11.805 -0.0363  1.4563 -0.2801
 9189SOL    HW229009   1.191   1.406  11.796  1.2521 -2.0497 -0.2941
 9190SOL     OW29010   6.585   0.058   0.008  0.2575 -0.6934 -0.3569
 9190SOL    HW129011   6.653   0.069   0.075  0.0541 -1.1080 -0.0782
 9190SOL    HW229012   6.503   0.073   0.055  0.1980  1.9826 -1.1325
 9191SOL     OW29013   1.709   4.468   9.604  0.4187 -0.3516 -0.1203
 9191SOL    HW129014   1.787   4.521   9.618  0.6812 -0.7720  0.0034
 9191SOL    HW229015   1.642   4.509   9.660  0.4745  0.1697 -0.4346
 9192SOL     OW29016   1.478   1.512   3.435  0.5053  0.0962  0.0772
 9192SOL    HW129017   1.570   1.531   3.456  1.0385 -2.2205  0.1503
 9192SOL    HW229018   1.431   1.591   3.460  2.4778  1.3759 -0.0069
 9193SOL     OW29019   5.210   2.029  11.409 -0.1003 -0.5253 -0.3671
 9193SOL    HW129020   5.224   2.101  11.470  0.8200 -0.0034 -1.1626
 9193SOL    HW229021   5.222   1.950  11.460 -1.4524 -0.1492  0.6047
 9194SOL     OW29022   0.371   5.877   3.773 -0.0709  0.3402 -0.1423
 9194SOL    HW129023   0.329   5.889   3.857  0.1431 -0.3808  0.0766
 9194SOL    HW229024   0.454   5.834   3.793  0.6248  1.4190 -0.5953
 9195SOL     OW29025   1.944   5.002   1.665 -0.4866 -0.2213 -0.0628
 9195SOL    HW129026   2.040   5.012   1.664 -0.3898 -0.9990 -1.3589
 9195SOL    HW229027   1.913   5.075   1.611 -0.5069 -0.8429 -0.9035
 9196SOL     OW29028   3.514   4.974   9.995 -0.8558  0.1425 -0.0910
 9196SOL    HW129029   3.514   5.056  10.044 -1.7750  0.6010 -0.8106
 9196SOL    HW229030   3.475   4.910  10.054  0.1312  0.1394  0.5790
 9197SOL     OW29031   2.081   4.673   1.525  0.0788 -0.5889  0.1570
 9197SOL    HW129032   2.123   4.648   1.606  0.9673 -1.7437 -0.6351
 9197SOL    HW229033   2.123   4.756   1.501 -0.4160 -0.0750  1.0135
 9198SOL     OW29034   0.844   3.783   8.462 -0.1951 -0.1765  0.2139
 9198SOL    HW129035   0.933   3.781   8.427  0.6536 -2.2001  2.2462
 9198SOL    HW229036   0.788   3.802   8.386  1.9036  0.8786 -1.1530
 9199SOL     OW29037   6.834   1.014   4.545  0.5276 -0.2803  0.1551
 9199SOL    HW129038   6.839   0.931   4.593 -0.3328 -0.9279 -0.8286
 9199SOL    HW229039   6.741   1.032   4.539  0.7164  0.9147  0.5798
 9200SOL     OW29040   6.144   2.531   6.984 -0.5532 -0.4743  0.2380
 9200SOL    HW129041   6.239   2.531   6.979 -0.5377 -3.0953 -1.1516
 9200SOL    HW229042   6.116   2.585   6.910 -0.0849 -2.6595 -1.6335
 9201SOL     OW29043   2.016   7.028  11.323  0.1167 -0.1625  0.0376
 9201SOL    HW129044   2.103   7.000  11.351  0.5710  1.5071  0.4217
 9201SOL    HW229045   2.030   7.069  11.238 -0.5405 -1.1828 -0.5779
 9202SOL     OW29046   2.114   3.144  11.388  0.4657  0.4993 -0.4567
 9202SOL    HW129047   2.039   3.090  11.412 -0.7765  1.6973 -1.5218
 9202SOL    HW229048   2.181   3.081  11.362 -0.2488 -0.5796  0.2282
 9203SOL     OW29049   5.407   1.347   2.460 -0.1233 -0.5822  0.0855
 9203SOL    HW129050   5.501   1.344   2.442 -0.1577  0.2532 -0.2994
 9203SOL    HW229051   5.398   1.309   2.547  0.7010  0.2140  0.5379
 9204SOL     OW29052   3.342   1.656   2.072  0.2674  0.1653 -0.1138
 9204SOL    HW129053   3.365   1.589   2.008 -1.0135 -2.0832  1.6228
 9204SOL    HW229054   3.405   1.645   2.143 -1.8505 -1.5397  1.6539
 9205SOL     OW29055   4.374   2.930  10.562  0.1494 -0.0209 -0.6099
 9205SOL    HW129056   4.468   2.952  10.562  0.0746  0.3115 -0.9347
 9205SOL    HW229057   4.330   3.013  10.546 -0.3654  0.3925  2.4503
 9206SOL     OW29058   4.359   2.554  10.381 -0.0041 -0.3706 -0.2601
 9206SOL    HW129059   4.317   2.620  10.327 -1.7336 -1.5466 -0.4176
 9206SOL    HW229060   4.403   2.496  10.319 -1.1836 -1.1734 -0.3653
 9207SOL     OW29061   1.990   3.079   5.563  0.0864  0.2113  0.1467
 9207SOL    HW129062   2.061   3.115   5.509  0.7027 -0.0492  0.7644
 9207SOL    HW229063   1.988   3.136   5.640 -0.5876  0.4028 -0.0054
 9208SOL     OW29064   0.081   0.179   8.164 -0.4170 -0.2204 -0.1447
 9208SOL    HW129065   0.031   0.098   8.164 -0.0342 -0.4754  0.8878
 9208SOL    HW229066   0.139   0.172   8.088  0.9414 -1.7900  0.9683
 9209SOL     OW29067   7.571   6.106   0.318 -0.0180  0.1671 -0.0438
 9209SOL    HW129068   7.592   6.199   0.309  1.4113 -0.0862  0.4226
 9209SOL    HW229069   7.656   6.063   0.325 -0.6979 -0.9154  2.3441
 9210SOL     OW29070   0.175   2.354   2.487 -0.5677 -0.1300 -1.2185
 9210SOL    HW129071   0.226   2.285   2.445  0.5489  0.0369 -0.1759
 9210SOL    HW229072   0.162   2.419   2.418 -0.0474 -0.5337 -1.7064
 9211SOL     OW29073   1.240   1.052   6.546 -0.0101 -0.2337  0.0031
 9211SOL    HW129074   1.300   1.015   6.611 -1.5118 -1.7195  0.6366
 9211SOL    HW229075   1.293   1.061   6.466  1.7737  1.2550  1.2591
 9212SOL     OW29076   0.886   1.658  12.160 -0.3234  0.3328 -0.0391
 9212SOL    HW129077   0.977   1.673  12.186  0.6939 -2.6087 -1.5010
 9212SOL    HW229078   0.887   1.668  12.064 -1.2708 -0.8256 -0.1832
 9213SOL     OW29079   6.242   6.710   8.577  0.1037 -0.3671  0.3645
 9213SOL    HW129080   6.231   6.716   8.672 -1.7297 -0.6320  0.1965
 9213SOL    HW229081   6.221   6.619   8.556 -1.3828  0.1534 -0.5023
 9214SOL     OW29082   2.794   0.659   6.780  0.3522  0.4325  0.0760
 9214SOL    HW129083   2.887   0.677   6.791  0.3534 -0.2155  1.3252
 9214SOL    HW229084   2.790   0.570   6.745  0.2166  0.7264 -0.6636
 9215SOL     OW29085   5.967   7.808  12.352  0.6450 -0.1187 -0.1019
 9215SOL    HW129086   6.032   7.740  12.369 -1.0643 -1.5686  1.0214
 9215SOL    HW229087   5.946   7.797  12.259  1.3742 -0.1775 -0.2701
 9216SOL     OW29088   0.681   6.277   6.705  0.1348  0.4738 -0.5153
 9216SOL    HW129089   0.667   6.371   6.695 -0.9357  0.1423 -2.5998
 9216SOL    HW229090   0.771   6.262   6.675  0.7273  0.9495  0.9447
 9217SOL     OW29091   7.778   0.888   8.944 -0.3240 -0.0682  0.0416
 9217SOL    HW129092   7.811   0.967   8.988  0.9162  1.6222 -3.5988
 9217SOL    HW229093   7.686   0.907   8.929 -0.1491  0.4698 -0.3728
 9218SOL     OW29094   6.387   5.077   9.024  0.3607  0.8017 -0.7166
 9218SOL    HW129095   6.313   5.081   9.084  0.2407 -0.6897 -0.7354
 9218SOL    HW229096   6.374   5.152   8.966 -0.6662  1.0514 -0.1951
 9219SOL     OW29097   5.701   7.688   3.891 -0.1398  0.1816  0.5049
 9219SOL    HW129098   5.615   7.667   3.855 -0.1000 -0.1406  0.5908
 9219SOL    HW229099   5.757   7.702   3.814 -0.0799 -0.4018  0.4368
 9220SOL     OW29100   6.551   2.586   0.975 -0.2561 -0.0181  0.3071
 9220SOL    HW129101   6.625   2.645   0.981  0.8191 -1.0317 -1.8722
 9220SOL    HW229102   6.495   2.623   0.908 -1.0151 -0.0190  0.9218
 9221SOL     OW29103   2.893   1.430   4.830  0.4760 -0.0388  0.0464
 9221SOL    HW129104   2.833   1.388   4.769  0.2601 -2.4157  1.7377
 9221SOL    HW229105   2.944   1.358   4.867  2.0708  1.5403  1.1034
 9222SOL     OW29106   4.701   6.480   6.646 -0.6439 -0.2364 -0.4289
 9222SOL    HW129107   4.658   6.414   6.700 -0.3987 -0.2155 -0.2079
 9222SOL    HW229108   4.744   6.431   6.577 -3.4009 -0.1264 -2.4060
 9223SOL     OW29109   3.962   2.906   0.355  0.9629  0.0286 -0.2614
 9223SOL    HW129110   3.970   2.972   0.287  1.2000 -1.1087 -1.3617
 9223SOL    HW229111   3.920   2.952   0.428 -2.1884  0.5917 -2.2253
 9224SOL     OW29112   7.147   0.666   2.488 -0.1770 -0.5473 -0.0018
 9224SOL    HW129113   7.073   0.700   2.439 -0.6410 -1.2269  0.2194
 9224SOL    HW229114   7.178   0.740   2.540 -0.8002 -0.3055  0.0236
 9225SOL     OW29115   3.764   3.465  10.001 -0.4914  0.0995 -0.5201
 9225SOL    HW129116   3.735   3.489  10.089 -1.1558 -1.0751 -0.4042
 9225SOL    HW229117   3.707   3.513   9.942 -0.2426  0.6526 -0.3145
 9226SOL     OW29118   2.523   1.083   1.743 -0.4466 -0.2934 -0.3668
 9226SOL    HW129119   2.488   0.994   1.746 -0.0838 -0.4029  1.3470
 9226SOL    HW229120   2.450   1.137   1.711 -1.3739 -0.8914  0.6845
 9227SOL     OW29121   6.289   0.737   6.371 -0.1523  0.0814 -0.1340
 9227SOL    HW129122   6.363   0.790   6.402 -0.9865  1.6286 -0.7106
 9227SOL    HW229123   6.247   0.706   6.451  1.3207 -1.1561  0.2048
 9228SOL     OW29124   2.206   6.646   1.574  0.5098 -0.3627 -0.6476
 9228SOL    HW129125   2.168   6.734   1.573  0.4929 -0.2043  2.6703
 9228SOL    HW229126   2.130   6.587   1.566  0.2398 -0.0736 -0.2282
 9229SOL     OW29127   0.751   7.353   4.647  0.1084  0.2652 -0.1481
 9229SOL    HW129128   0.786   7.317   4.565  0.5413 -0.3957  0.3195
 9229SOL    HW229129   0.769   7.447   4.641  2.0617 -0.0619  0.1110
 9230SOL     OW29130   2.115   2.790   6.148  0.6394  0.2045  0.4582
 9230SOL    HW129131   2.209   2.803   6.161  0.7300 -1.0129  1.2901
 9230SOL    HW229132   2.108   2.747   6.063  0.7507  1.0636  0.0068
 9231SOL     OW29133   4.083   4.758   2.732 -0.4887  0.7506  0.0919
 9231SOL    HW129134   4.139   4.701   2.680 -0.3559  0.2159  0.8096
 9231SOL    HW229135   4.065   4.832   2.675  0.8066  0.8514 -0.2089
 9232SOL     OW29136   5.212   4.040   3.067 -0.6768  0.5698 -0.3701
 9232SOL    HW129137   5.252   4.049   3.153 -1.0496 -1.2966  0.0426
 9232SOL    HW229138   5.120   4.065   3.080 -1.4229 -2.2888  0.4892
 9233SOL     OW29139   6.698   1.373   8.093 -0.2467  0.3793  0.6664
 9233SOL    HW129140   6.749   1.399   8.169  2.6084 -2.6895  0.0575
 9233SOL    HW229141   6.739   1.420   8.020 -1.1487  1.1958  0.6810
 9234SOL     OW29142   6.744   1.732   9.182 -0.0334 -0.0453 -0.5959
 9234SOL    HW129143   6.699   1.725   9.266  1.2581 -0.0444  0.1248
 9234SOL    HW229144   6.684   1.693   9.119 -1.4980  0.9505  0.1388
 9235SOL     OW29145   3.475   1.357   5.477 -0.7921 -0.1749 -0.0802
 9235SOL    HW129146   3.492   1.441   5.518 -1.6369 -0.0468  0.0348
 9235SOL    HW229147   3.452   1.379   5.386 -0.3841 -0.3341 -0.2225
 9236SOL     OW29148   7.331   1.379   7.941 -0.0262 -0.5944 -0.5508
 9236SOL    HW129149   7.294   1.336   8.018 -0.6634  1.2911  0.2680
 9236SOL    HW229150   7.409   1.424   7.973  0.4795 -0.9070 -1.3140
 9237SOL     OW29151   3.366   5.499  10.499 -0.3593  0.1913 -0.0353
 9237SOL    HW129152   3.405   5.530  10.580 -1.3539 -0.7103  0.8178
 9237SOL    HW229153   3.309   5.570  10.471 -0.4774  0.2678  0.3929
 9238SOL     OW29154   6.705   6.557  10.770 -0.7400  0.3169 -0.3166
 9238SOL    HW129155   6.773   6.621  10.790 -1.2046  0.2077  1.8439
 9238SOL    HW229156   6.733   6.477  10.815 -1.0274 -0.5154 -1.5493
 9239SOL     OW29157   5.053   0.962   3.289  0.3200  0.2806  0.5934
 9239SOL    HW129158   5.053   0.905   3.213 -1.2554 -0.3890  1.0625
 9239SOL    HW229159   5.126   0.930   3.343  0.1062 -0.6242  0.3574
 9240SOL     OW29160   3.757   3.632   2.262  0.1454 -0.3620 -0.2176
 9240SOL    HW129161   3.801   3.558   2.219  0.5449 -0.0200 -0.3968
 9240SOL    HW229162   3.684   3.653   2.204 -0.4982 -1.1710  0.2666
 9241SOL     OW29163   4.465   1.146  12.028  0.3368  0.4846  0.5118
 9241SOL    HW129164   4.421   1.169  11.947  1.7743  0.4349 -0.3067
 9241SOL    HW229165   4.415   1.071  12.062  0.0611  0.1402 -0.6175
 9242SOL     OW29166   2.161   1.388  11.428 -0.4322  0.5288 -0.3423
 9242SOL    HW129167   2.227   1.320  11.417 -1.2207 -0.6083  1.4960
 9242SOL    HW229168   2.207   1.470  11.407  1.5310 -0.2436  0.6985
 9243SOL     OW29169   0.794   0.968   8.969  0.1072  0.1929 -0.1594
 9243SOL    HW129170   0.815   0.876   8.981  0.9266  0.4380  0.3657
 9243SOL    HW229171   0.798   0.981   8.875  2.0216  0.1333 -0.1261
 9244SOL     OW29172   7.803   3.222   8.208  0.0627  0.1775 -0.4066
 9244SOL    HW129173   7.895   3.245   8.193 -0.4011  2.8373  0.3573
 9244SOL    HW229174   7.753   3.292   8.165 -1.5913 -0.7341 -0.0392
 9245SOL     OW29175   3.402   3.876   1.407  0.3185  0.0741  0.0813
 9245SOL    HW129176   3.316   3.841   1.430  0.3601  0.4642  0.8922
 9245SOL    HW229177   3.390   3.915   1.321  0.0345 -1.0684 -0.4098
 9246SOL     OW29178   5.989   7.005   6.397 -0.2922 -0.3738  0.0699
 9246SOL    HW129179   6.060   7.057   6.434 -2.8266  1.4607  2.8924
 9246SOL    HW229180   5.934   7.068   6.350 -1.3454 -1.2320  0.0951
 9247SOL     OW29181   6.148   5.583   3.504 -0.2254  0.2382  0.8245
 9247SOL    HW129182   6.200   5.660   3.525 -0.0260 -0.2861  2.3240
 9247SOL    HW229183   6.179   5.556   3.417  1.1116  0.6625  1.1549
 9248SOL     OW29184   3.851   5.026   6.421  0.0657  0.2981  0.6699
 9248SOL    HW129185   3.878   4.943   6.460 -0.4498 -0.5884 -0.8083
 9248SOL    HW229186   3.760   5.014   6.396  0.9252 -0.0756 -2.8972
 9249SOL     OW29187   7.112   3.971   2.411 -0.1451 -0.0556 -0.7022
 9249SOL    HW129188   7.178   3.967   2.342  0.2054  0.0762 -0.3766
 9249SOL    HW229189   7.044   4.029   2.376  0.6305  1.0403 -0.4293
 9250SOL     OW29190   1.875   5.840   4.531  0.1484  0.6630  0.4034
 9250SOL    HW129191   1.820   5.762   4.527 -1.1876  1.6196 -1.1833
 9250SOL    HW229192   1.955   5.816   4.485 -0.1216  0.1300  0.2005
 9251SOL     OW29193   0.837   3.751   3.865  0.3436 -0.4367 -0.5208
 9251SOL    HW129194   0.795   3.793   3.941  1.4478  0.6704 -0.4959
 9251SOL    HW229195   0.899   3.817   3.833 -0.0776 -0.9060 -2.3774
 9252SOL     OW29196   5.115   3.185   2.907  0.5313 -0.0381  0.1751
 9252SOL    HW129197   5.124   3.092   2.923 -0.7939 -0.4175 -1.0464
 9252SOL    HW229198   5.202   3.221   2.925  1.8040 -1.8890 -1.7015
 9253SOL     OW29199   0.991   1.942   0.242 -0.2551  0.1907  0.3144
 9253SOL    HW129200   0.916   1.910   0.191 -0.0520  2.2822 -1.4496
 9253SOL    HW229201   1.050   1.868   0.247 -0.6143 -0.3235 -1.9358
 9254SOL     OW29202   4.396   4.033   9.176 -0.0388 -0.0745 -0.0670
 9254SOL    HW129203   4.460   4.015   9.107  0.2191  0.8499 -0.0786
 9254SOL    HW229204   4.430   3.986   9.253  1.4943  1.5805  0.3476
 9255SOL     OW29205   6.136   7.828  11.561 -0.4481  0.3765  0.1771
 9255SOL    HW129206   6.196   7.900  11.580  0.3550 -0.6191  1.5716
 9255SOL    HW229207   6.097   7.807  11.646 -0.7535 -0.7596 -0.2336
 9256SOL     OW29208   6.000   7.531   9.206  0.1663  0.1226  0.7803
 9256SOL    HW129209   5.937   7.462   9.226 -0.2999  0.3180  0.0130
 9256SOL    HW229210   5.965   7.608   9.251  0.8622 -0.2013  1.9144
 9257SOL     OW29211   0.506   4.045   5.010  0.6291  0.1735  0.6639
 9257SOL    HW129212   0.436   3.987   4.980  0.7958 -0.6415  1.8231
 9257SOL    HW229213   0.485   4.130   4.969 -0.9035 -0.1035  0.8108
 9258SOL     OW29214   4.782   0.314   9.442  0.2773 -0.5169 -0.1390
 9258SOL    HW129215   4.759   0.244   9.381 -1.6540 -0.2013  0.1623
 9258SOL    HW229216   4.775   0.394   9.391 -2.0179 -0.1839  0.5474
 9259SOL     OW29217   6.100   4.922   3.551 -0.2413  0.2722 -0.4310
 9259SOL    HW129218   6.085   4.908   3.457  0.5245  0.4009 -0.5865
 9259SOL    HW229219   6.018   4.957   3.584 -0.1838  1.2830 -1.2940
 9260SOL     OW29220   5.480   2.121   2.622  0.6364 -0.5434 -0.5534
 9260SOL    HW129221   5.416   2.053   2.639 -0.6860  0.3717 -1.6284
 9260SOL    HW229222   5.437   2.202   2.649  1.5651  0.0384 -0.7673
 9261SOL     OW29223   7.390   1.417   3.720 -0.2409 -0.0718  0.3671
 9261SOL    HW129224   7.415   1.425   3.628  1.1627  0.9106  0.8094
 9261SOL    HW229225   7.470   1.436   3.769 -0.9273 -0.7103  1.8059
 9262SOL     OW29226   7.114   7.422  10.360 -0.1565 -0.0294  0.7915
 9262SOL    HW129227   7.181   7.488  10.376  1.1610 -1.2015  0.3424
 9262SOL    HW229228   7.142   7.346  10.411 -0.5705 -0.8877 -0.2134
 9263SOL     OW29229   0.101   4.806   8.354 -0.2786 -0.2500  0.4171
 9263SOL    HW129230   0.139   4.775   8.437 -1.2621  1.3063  1.5040
 9263SOL    HW229231   0.043   4.734   8.326  1.1632 -1.4005  0.2776
 9264SOL     OW29232   5.908   2.420   6.984  0.3999  0.0112 -0.3679
 9264SOL    HW129233   5.875   2.401   6.896  0.3478  0.2525 -0.4026
 9264SOL    HW229234   6.000   2.444   6.969  0.5001 -0.3335 -0.3100
 9265SOL     OW29235   5.435   1.268   0.057  0.2249  0.4258  0.8003
 9265SOL    HW129236   5.529   1.279   0.046  0.5378 -0.1312  2.5583
 9265SOL    HW229237   5.403   1.356   0.075  0.1400  0.8605 -1.2263
 9266SOL     OW29238   0.247   2.529   4.622 -0.3911  0.2212  0.3835
 9266SOL    HW129239   0.188   2.466   4.662  0.3022  0.6753  2.2522
 9266SOL    HW229240   0.260   2.596   4.690  0.3505  1.3830 -0.8568
 9267SOL     OW29241   6.066   0.627   4.953  0.3869  0.6508  0.4683
 9267SOL    HW129242   6.109   0.683   5.017 -0.3384 -0.5624  2.1131
 9267SOL    HW229243   5.978   0.664   4.942 -0.5251 -0.7191  2.4784
 9268SOL     OW29244   6.910   3.572  11.316  0.7053  0.1652  0.4877
 9268SOL    HW129245   6.887   3.593  11.225 -0.0522 -0.6748  0.4672
 9268SOL    HW229246   6.856   3.631  11.369  1.8875  1.3639  0.4020
 9269SOL     OW29247   0.006   7.426   5.842  0.4301 -0.4026  0.0081
 9269SOL    HW129248   0.008   7.335   5.869  1.0687 -0.3569  0.1284
 9269SOL    HW229249   0.014   7.475   5.924  0.0136 -0.2338 -0.0482
 9270SOL     OW29250   6.502   7.853   4.018  0.8125 -0.4054 -0.0295
 9270SOL    HW129251   6.469   7.860   4.108 -0.7617 -0.5989 -0.5700
 9270SOL    HW229252   6.450   7.783   3.979 -1.0996  1.9883 -2.1585
 9271SOL     OW29253   7.128   4.455   3.410  0.4853 -0.0108 -0.5783
 9271SOL    HW129254   7.198   4.418   3.463  0.7426  0.2227 -0.7460
 9271SOL    HW229255   7.078   4.510   3.470 -0.7559 -1.7165 -0.0000
 9272SOL     OW29256   1.534   1.204   8.273  0.0354 -0.1153  0.0251
 9272SOL    HW129257   1.505   1.243   8.191  1.4253 -0.4801 -0.6664
 9272SOL    HW229258   1.578   1.275   8.319 -3.5208  1.0362  2.0219
 9273SOL     OW29259   0.508   5.284   7.297 -0.2292 -0.1066  0.0019
 9273SOL    HW129260   0.431   5.285   7.354 -0.0609  2.1501  0.2827
 9273SOL    HW229261   0.555   5.364   7.320  1.3829 -0.6454 -1.2776
 9274SOL     OW29262   2.554   4.888   2.452  0.5039 -0.2116 -0.4738
 9274SOL    HW129263   2.495   4.854   2.518  3.3129 -0.4219  2.1363
 9274SOL    HW229264   2.598   4.811   2.416  1.6615  0.1166  0.1834
 9275SOL     OW29265   2.600   7.870  10.550  0.1682  0.0130 -0.0942
 9275SOL    HW129266   2.521   7.817  10.543 -0.2740  0.6986 -0.3922
 9275SOL    HW229267   2.631   7.856  10.639 -0.3090 -0.2335  0.0353
 9276SOL     OW29268   1.784   0.796   7.869  0.2971  0.7179 -0.0749
 9276SOL    HW129269   1.769   0.888   7.890 -0.6549  0.6774 -0.5212
 9276SOL    HW229270   1.696   0.758   7.862  0.6736 -0.4551  1.0468
 9277SOL     OW29271   2.399   0.311  12.151  0.0921  0.2699  0.1428
 9277SOL    HW129272   2.332   0.343  12.211 -1.2288 -0.7382 -0.7473
 9277SOL    HW229273   2.481   0.342  12.188 -0.5448 -1.2485  3.1525
 9278SOL     OW29274   2.386   4.424   7.250 -0.1100 -0.5651  0.0049
 9278SOL    HW129275   2.341   4.508   7.258  0.2481 -0.3315 -0.3915
 9278SOL    HW229276   2.446   4.422   7.325 -0.2614 -0.5584  0.1275
 9279SOL     OW29277   3.960   6.321   0.549 -0.1703 -0.7180  0.3187
 9279SOL    HW129278   3.905   6.398   0.530 -2.9576 -2.6834 -0.2137
 9279SOL    HW229279   4.034   6.330   0.489 -0.9434  1.0242 -0.4631
 9280SOL     OW29280   5.685   4.948   7.967 -0.2988 -0.3214 -0.2270
 9280SOL    HW129281   5.606   4.894   7.970  0.2027 -1.1962 -1.6400
 9280SOL    HW229282   5.726   4.926   7.884  2.0320 -0.7445  0.9272
 9281SOL     OW29283   3.457   5.524   6.899  0.3999 -0.1197 -0.0584
 9281SOL    HW129284   3.549   5.524   6.872  0.1277 -0.9941 -1.0885
 9281SOL    HW229285   3.421   5.605   6.864  0.2937 -0.7784 -1.5949
 9282SOL     OW29286   7.275   1.574   7.573  0.1205 -0.1566  0.0532
 9282SOL    HW129287   7.324   1.493   7.561 -0.2893 -0.2797 -0.9017
 9282SOL    HW229288   7.217   1.579   7.497 -1.6760 -0.2303  1.3580
 9283SOL     OW29289   0.478   3.133   9.973  0.0706 -0.1291  0.4473
 9283SOL    HW129290   0.418   3.074   9.927 -0.4723  1.1204 -0.5207
 9283SOL    HW229291   0.444   3.137  10.062 -0.7917 -0.1258  0.1355
 9284SOL     OW29292   1.914   0.663  11.899 -0.4385 -0.2339 -0.9254
 9284SOL    HW129293   1.858   0.620  11.964 -0.7128  0.7370 -0.4991
 9284SOL    HW229294   1.853   0.692  11.831 -0.1421 -1.3195 -1.6752
 9285SOL     OW29295   3.827   1.204   9.014  0.4105  0.1613 -0.3110
 9285SOL    HW129296   3.776   1.284   9.029 -0.2202 -0.6829  2.7441
 9285SOL    HW229297   3.782   1.161   8.941 -1.2420  1.0710  0.1064
 9286SOL     OW29298   2.413   6.869   0.793 -0.2636 -0.1027  0.3407
 9286SOL    HW129299   2.367   6.812   0.854 -0.3045 -0.2432  0.1787
 9286SOL    HW229300   2.442   6.811   0.723 -2.1294  0.3882 -0.8955
 9287SOL     OW29301   1.211   5.534   9.361 -0.5048 -0.3587  0.0882
 9287SOL    HW129302   1.120   5.563   9.349 -0.3787  0.6756  1.4451
 9287SOL    HW229303   1.247   5.594   9.427  1.2525 -0.5752 -0.6226
 9288SOL     OW29304   1.586   0.069   9.066  0.4524  0.1044  0.7974
 9288SOL    HW129305   1.647   0.143   9.074  1.4500 -0.4799 -0.7945
 9288SOL    HW229306   1.589   0.026   9.151  0.2238  1.6172  1.5968
 9289SOL     OW29307   7.576   6.672   9.676 -0.2517  0.3526 -0.0479
 9289SOL    HW129308   7.584   6.596   9.734 -0.0823 -0.0478 -0.5872
 9289SOL    HW229309   7.611   6.642   9.592  2.0660  1.7330  0.3295
 9290SOL     OW29310   1.239   5.570  11.264 -0.0434  0.4001 -0.4555
 9290SOL    HW129311   1.250   5.607  11.176  1.1807 -1.0911 -0.9770
 9290SOL    HW229312   1.327   5.543  11.290  0.1312  3.1546  2.3847
 9291SOL     OW29313   2.755   2.523   1.486 -0.1194 -0.2610  0.1153
 9291SOL    HW129314   2.782   2.600   1.535  0.6660 -0.9171  0.7593
 9291SOL    HW229315   2.814   2.454   1.517 -0.4733 -0.9960 -0.8089
 9292SOL     OW29316   0.469   5.546   0.525  0.6559 -0.1718  0.1460
 9292SOL    HW129317   0.432   5.612   0.466  0.2077 -0.7299 -0.2088
 9292SOL    HW229318   0.396   5.523   0.583  0.7928 -0.3943  0.2328
 9293SOL     OW29319   7.445   4.764   5.011 -0.6693  0.4701  0.3572
 9293SOL    HW129320   7.368   4.709   5.001 -1.6401  1.9931 -0.9530
 9293SOL    HW229321   7.411   4.847   5.043 -0.0649  2.1957 -3.0589
 9294SOL     OW29322   7.851   0.449   4.989 -0.2403 -0.0523  0.0458
 9294SOL    HW129323   7.887   0.365   5.018 -0.5126  0.4954  2.1399
 9294SOL    HW229324   7.927   0.508   4.985 -0.1640 -0.1855 -0.6884
 9295SOL     OW29325   7.418   6.459   7.463 -0.1093  0.2573  0.2550
 9295SOL    HW129326   7.393   6.516   7.535 -0.0361 -2.1522  2.3324
 9295SOL    HW229327   7.499   6.417   7.492 -0.7226 -1.6904 -0.6490
 9296SOL     OW29328   1.970   1.315   6.753  0.1248 -0.4870  0.1429
 9296SOL    HW129329   2.020   1.313   6.671 -0.7945  2.0856 -0.5518
 9296SOL    HW229330   1.906   1.245   6.743  0.1112 -0.3045 -1.2845
 9297SOL     OW29331   3.866   6.519  10.782 -0.4341  0.1397 -0.6219
 9297SOL    HW129332   3.886   6.456  10.851  0.7276  1.1065 -0.0435
 9297SOL    HW229333   3.843   6.465  10.706  0.8825 -1.0083 -0.2455
 9298SOL     OW29334   4.173   7.672  11.357 -0.6200  0.5979  0.1628
 9298SOL    HW129335   4.232   7.744  11.334  0.2796 -0.7614 -2.1691
 9298SOL    HW229336   4.086   7.703  11.332 -0.3039  1.0689 -0.3785
 9299SOL     OW29337   0.150   1.833   6.948 -0.0404 -0.0157 -0.5396
 9299SOL    HW129338   0.171   1.761   7.007  0.1614 -0.4046 -1.0851
 9299SOL    HW229339   0.153   1.795   6.861 -1.7276  0.2228 -0.7325
 9300SOL     OW29340   7.610   0.076   9.846  0.3744  0.1063 -0.0832
 9300SOL    HW129341   7.538   0.061   9.785  2.7463  1.9169 -3.6993
 9300SOL    HW229342   7.596   0.164   9.879 -0.9948 -0.9305  2.3425
 9301SOL     OW29343   2.591   7.309   0.018 -1.1126 -0.0857  0.0713
 9301SOL    HW129344   2.589   7.401   0.041 -1.5526  0.4600 -1.9193
 9301SOL    HW229345   2.510   7.273   0.054  0.7131 -0.6888  4.1554
 9302SOL     OW29346   1.455   7.809   2.856 -0.7442  0.2252  0.2732
 9302SOL    HW129347   1.490   7.729   2.896  1.2955  0.2916 -1.1785
 9302SOL    HW229348   1.422   7.780   2.771 -2.1236  0.5768  0.6781
 9303SOL     OW29349   5.453   5.011   0.491  0.3487  0.6065 -0.1958
 9303SOL    HW129350   5.498   5.035   0.410  0.8328  0.9822  0.1816
 9303SOL    HW229351   5.389   5.081   0.505 -0.1247  0.2551 -0.5422
 9304SOL     OW29352   1.578   3.153  11.625 -0.3145 -0.2260  0.0945
 9304SOL    HW129353   1.649   3.149  11.689 -0.5422 -1.6512  0.2742
 9304SOL    HW229354   1.598   3.232  11.573  3.2679 -2.2178 -1.9990
 9305SOL     OW29355   2.091   6.530   0.871  0.1445 -0.2375 -0.2079
 9305SOL    HW129356   2.171   6.536   0.819 -1.0567  1.0821 -2.0224
 9305SOL    HW229357   2.085   6.613   0.917 -0.6827  0.1159 -0.9147
 9306SOL     OW29358   2.135   5.977   5.620  0.1610 -0.5070  0.1667
 9306SOL    HW129359   2.146   6.037   5.694 -2.4538 -0.4734  0.6189
 9306SOL    HW229360   2.063   5.919   5.647  1.3302 -2.6634 -1.0266
 9307SOL     OW29361   6.050   0.862   4.132  0.2585  0.0442 -0.1710
 9307SOL    HW129362   6.099   0.838   4.211  0.2210  0.6171  0.0311
 9307SOL    HW229363   5.990   0.789   4.119  1.3700 -0.8343 -0.6066
 9308SOL     OW29364   3.698   6.222  10.013 -0.3298 -0.2877 -0.3369
 9308SOL    HW129365   3.645   6.270   9.950  0.9259  1.4824 -0.1469
 9308SOL    HW229366   3.788   6.248   9.993  0.1217  0.3686  2.1160
 9309SOL     OW29367   4.921   1.716   3.140 -0.4727 -0.5916  0.2967
 9309SOL    HW129368   4.876   1.710   3.056  0.0923  0.3487 -0.0868
 9309SOL    HW229369   4.851   1.723   3.205 -0.8985  0.0928 -0.2248
 9310SOL     OW29370   2.408   5.105  10.344  0.6024  0.5025  0.3221
 9310SOL    HW129371   2.483   5.165  10.350 -0.3724  1.7726  0.3875
 9310SOL    HW229372   2.435   5.028  10.393  1.5252  1.3190  1.1571
 9311SOL     OW29373   0.070   6.252   5.451  0.3321  0.3616  0.2372
 9311SOL    HW129374   0.088   6.333   5.499 -0.3570  0.0645  1.0188
 9311SOL    HW229375   0.033   6.193   5.517  0.8549 -0.6057 -0.3188
 9312SOL     OW29376   3.366   6.019   4.396 -0.0617  0.1008 -0.0770
 9312SOL    HW129377   3.369   6.038   4.302 -0.3158  0.0491 -0.0954
 9312SOL    HW229378   3.294   6.073   4.429  0.1389  0.2489  0.1180
 9313SOL     OW29379   7.464   5.312   3.191  0.1197  0.5782 -0.8811
 9313SOL    HW129380   7.533   5.272   3.244  1.1066  2.0588 -0.9918
 9313SOL    HW229381   7.388   5.313   3.248  0.8853  1.2085  0.1579
 9314SOL     OW29382   5.373   7.454   6.636  0.0057 -0.4588  0.1599
 9314SOL    HW129383   5.321   7.374   6.642 -1.3755  0.3628 -0.4686
 9314SOL    HW229384   5.385   7.481   6.727 -3.0429  0.7820  0.3068
 9315SOL     OW29385   4.323   6.320   2.547  0.2689  0.0572  0.0209
 9315SOL    HW129386   4.408   6.285   2.574  0.1905 -0.5464 -0.5061
 9315SOL    HW229387   4.260   6.264   2.591  0.1239  1.0220  1.0927
 9316SOL     OW29388   0.563   2.505  10.555  0.1427  0.7844  0.1458
 9316SOL    HW129389   0.612   2.423  10.547 -0.8649  0.2701 -0.9905
 9316SOL    HW229390   0.499   2.487  10.625 -2.9348 -0.9909 -2.8297
 9317SOL     OW29391   6.900   4.023   2.914 -0.5937  0.0508 -0.2348
 9317SOL    HW129392   6.818   4.030   2.962 -0.4901 -0.4508  0.0233
 9317SOL    HW229393   6.875   3.984   2.830 -0.6313 -0.0225 -0.1897
 9318SOL     OW29394   3.856   1.905   3.132  0.5076  0.1891  0.2836
 9318SOL    HW129395   3.782   1.885   3.074 -0.3035  0.2587  1.2675
 9318SOL    HW229396   3.927   1.929   3.073 -0.6663  1.4970 -0.6564
 9319SOL     OW29397   7.783   2.385   6.535 -0.5379 -0.1247  0.3647
 9319SOL    HW129398   7.792   2.407   6.443  1.0933  0.5308  0.6485
 9319SOL    HW229399   7.702   2.427   6.563 -2.1685 -2.0182 -1.2105
 9320SOL     OW29400   2.670   0.116   6.821 -0.7067  0.1322 -0.0758
 9320SOL    HW129401   2.614   0.193   6.814  0.1746  0.6954 -1.3219
 9320SOL    HW229402   2.759   0.152   6.824 -0.3497 -0.7878  0.6993
 9321SOL     OW29403   2.034   7.398  10.978 -0.1557 -0.5720 -0.7668
 9321SOL    HW129404   1.946   7.374  10.951 -0.4055  0.5624 -1.0124
 9321SOL    HW229405   2.027   7.414  11.072 -0.8370  2.0311 -1.1952
 9322SOL     OW29406   2.872   1.327   0.955 -0.0413 -0.3891 -0.2589
 9322SOL    HW129407   2.845   1.320   1.046  0.7928 -3.1159 -0.1267
 9322SOL    HW229408   2.850   1.242   0.917  3.0563 -0.7443 -1.5506
 9323SOL     OW29409   3.458   7.561   0.869 -0.2871  0.3247  0.3888
 9323SOL    HW129410   3.531   7.610   0.830  0.1740 -0.8312 -0.2366
 9323SOL    HW229411   3.489   7.540   0.957 -0.2175  0.5787  0.4280
 9324SOL     OW29412   7.569   5.902  12.192  0.2099  0.0207  0.0622
 9324SOL    HW129413   7.505   5.879  12.259 -0.3556  1.3371  0.0248
 9324SOL    HW229414   7.629   5.962  12.236 -1.6279  2.9976 -1.0920
 9325SOL     OW29415   4.918   6.241   6.883  0.0496 -0.2979 -0.0436
 9325SOL    HW129416   4.990   6.194   6.841 -0.9721 -2.1022  0.1144
 9325SOL    HW229417   4.955   6.326   6.905  1.7150 -0.6625 -1.2072
 9326SOL     OW29418   5.167   1.159   7.363 -0.4579  0.3337  0.0014
 9326SOL    HW129419   5.185   1.143   7.270  2.2762 -2.3764  0.8180
 9326SOL    HW229420   5.223   1.232   7.387 -1.1618  1.0327 -0.4310
 9327SOL     OW29421   0.968   4.489   4.257  0.4430 -0.2526  0.6131
 9327SOL    HW129422   0.944   4.580   4.275 -2.9187 -1.1485  1.4673
 9327SOL    HW229423   1.031   4.466   4.325 -0.1490  0.9018  1.5885
 9328SOL     OW29424   7.109   3.114   5.752  0.3169 -0.1499  0.1372
 9328SOL    HW129425   7.137   3.198   5.789  0.2770 -0.8235  1.7744
 9328SOL    HW229426   7.038   3.137   5.693  0.2504  0.9802  0.6280
 9329SOL     OW29427   4.953   7.522   5.558 -0.1568 -0.0508  0.2652
 9329SOL    HW129428   4.867   7.561   5.546  0.1025  0.4810  0.0889
 9329SOL    HW229429   4.938   7.428   5.555 -0.9972 -0.0016  2.1012
 9330SOL     OW29430   4.959   4.121   5.449 -0.0156 -0.5112  0.2818
 9330SOL    HW129431   5.021   4.127   5.376  0.5184 -0.1283  0.7563
 9330SOL    HW229432   4.961   4.207   5.490 -1.1036 -0.4041  0.1201
 9331SOL     OW29433   2.564   3.843   6.818  0.3563  0.2742 -0.1790
 9331SOL    HW129434   2.573   3.754   6.853  0.7465  0.6754  0.7582
 9331SOL    HW229435   2.610   3.840   6.734  1.1425 -0.1817  0.2551
 9332SOL     OW29436   6.588   1.348   6.493 -0.8080  0.0763 -0.0113
 9332SOL    HW129437   6.626   1.408   6.557  1.5791 -1.5717  0.2450
 9332SOL    HW229438   6.505   1.321   6.532  0.2143 -0.2788  2.0613
 9333SOL     OW29439   4.381   1.061   0.176 -0.2803 -0.3873  0.3022
 9333SOL    HW129440   4.447   1.054   0.244  0.1631 -0.0589 -0.0884
 9333SOL    HW229441   4.333   0.978   0.179  1.1664 -1.2854 -0.4604
 9334SOL     OW29442   6.614   1.521   1.090  0.1092 -0.1211 -0.5344
 9334SOL    HW129443   6.559   1.598   1.073 -0.0289 -0.0450  0.1997
 9334SOL    HW229444   6.704   1.554   1.086  0.1473 -0.3622 -2.3077
 9335SOL     OW29445   5.140   2.960  11.276 -0.6375 -0.3690  0.2787
 9335SOL    HW129446   5.210   2.904  11.310 -0.0949  0.7111  0.9903
 9335SOL    HW229447   5.133   2.937  11.183  0.7836 -0.3603  0.1531
 9336SOL     OW29448   2.590   6.320   0.194  0.3699 -0.1176  0.3736
 9336SOL    HW129449   2.656   6.329   0.125 -0.0491 -1.4190 -0.2385
 9336SOL    HW229450   2.549   6.406   0.201 -0.4393 -0.2498 -1.9017
 9337SOL     OW29451   3.491   7.714  10.951 -0.5479  0.1412  0.4671
 9337SOL    HW129452   3.582   7.699  10.925 -0.0245  1.4188  1.4230
 9337SOL    HW229453   3.453   7.762  10.877 -1.0666 -2.0689 -0.7988
 9338SOL     OW29454   2.062   2.775   3.526  0.0999 -0.3128 -0.3799
 9338SOL    HW129455   2.131   2.830   3.488 -1.3114  1.3519 -0.6998
 9338SOL    HW229456   1.981   2.810   3.488 -1.1194 -0.5933  1.8034
 9339SOL     OW29457   0.742   1.279   6.187 -0.6300  0.4202  0.1683
 9339SOL    HW129458   0.817   1.220   6.193 -2.3941 -2.4331 -2.6481
 9339SOL    HW229459   0.696   1.269   6.270  0.0722 -0.8185  0.4329
 9340SOL     OW29460   1.779   2.755   1.233  0.4380 -0.0646  0.3086
 9340SOL    HW129461   1.692   2.765   1.272  0.0501 -1.9732  0.0522
 9340SOL    HW229462   1.840   2.786   1.300 -0.4162  1.9748  0.2316
 9341SOL     OW29463   7.441   2.941   5.037 -0.2362  0.8289  0.3022
 9341SOL    HW129464   7.407   2.976   4.955  1.6637  0.7664 -0.5527
 9341SOL    HW229465   7.368   2.890   5.073 -0.6290 -0.4566 -2.1283
 9342SOL     OW29466   5.406   5.026   0.775  0.5258  0.0996 -0.1733
 9342SOL    HW129467   5.325   5.014   0.824  1.0239 -2.2164  0.1971
 9342SOL    HW229468   5.380   5.075   0.697 -1.3682 -1.0665 -0.3341
 9343SOL     OW29469   2.721   5.428   6.971  0.0726 -0.1004 -0.0404
 9343SOL    HW129470   2.701   5.442   6.878  1.1205 -0.8849 -0.4067
 9343SOL    HW229471   2.643   5.458   7.017 -0.2184  0.9141 -1.1328
 9344SOL     OW29472   2.445   1.340   6.126 -0.2185  0.0947 -0.0685
 9344SOL    HW129473   2.473   1.248   6.126 -1.2756 -0.2794 -1.7810
 9344SOL    HW229474   2.414   1.355   6.037  0.2658  2.2476  0.0756
 9345SOL     OW29475   1.619   3.331   0.057 -0.0923 -0.2542 -0.4367
 9345SOL    HW129476   1.549   3.321  -0.007  0.4869 -0.9469 -0.9814
 9345SOL    HW229477   1.632   3.425   0.063  0.5908 -0.1911 -2.1979
 9346SOL     OW29478   4.646   4.931   1.889  0.2671  0.2216  0.0148
 9346SOL    HW129479   4.641   4.920   1.984 -0.6530  0.8878  0.0573
 9346SOL    HW229480   4.555   4.937   1.860  0.5447  1.7289 -0.6752
 9347SOL     OW29481   4.916   7.341   7.827  0.0094  0.3659 -0.6143
 9347SOL    HW129482   4.976   7.374   7.760  2.0417  0.3604  1.0684
 9347SOL    HW229483   4.830   7.371   7.800  0.7822  0.5913 -3.0481
 9348SOL     OW29484   4.714   2.289   9.568  0.0984 -0.5955 -0.6135
 9348SOL    HW129485   4.747   2.378   9.582 -1.1742  0.0871 -1.6102
 9348SOL    HW229486   4.625   2.291   9.604 -0.3980 -1.0683 -1.7651
 9349SOL     OW29487   3.770   4.001   9.489 -0.1139  0.0291  0.0636
 9349SOL    HW129488   3.705   3.980   9.556  2.0474 -0.9019  1.9934
 9349SOL    HW229489   3.765   3.927   9.427  0.6031 -1.1845  1.4097
 9350SOL     OW29490   7.508   0.562   4.170  0.1458  0.2145  0.0077
 9350SOL    HW129491   7.593   0.559   4.127 -0.4699 -0.7412 -1.2236
 9350SOL    HW229492   7.518   0.628   4.239  1.0611  2.1248 -1.8447
 9351SOL     OW29493   3.385   2.094   6.343  0.1425 -0.1491  0.0509
 9351SOL    HW129494   3.306   2.056   6.304  0.7734 -1.9182  0.3807
 9351SOL    HW229495   3.449   2.093   6.273  0.3019 -0.1346  0.1963
 9352SOL     OW29496   5.197   5.650   0.916  0.1564  0.4294 -0.6299
 9352SOL    HW129497   5.241   5.708   0.853 -0.4648  0.3509 -1.1406
 9352SOL    HW229498   5.114   5.693   0.934  0.0994  0.1714 -0.2750
 9353SOL     OW29499   7.479   1.788   7.952 -0.0196  0.2813 -0.0305
 9353SOL    HW129500   7.538   1.848   7.998  2.3556  0.5202 -3.0618
 9353SOL    HW229501   7.406   1.843   7.923  1.6169  1.5943 -1.8825
 9354SOL     OW29502   4.084   2.922  11.571 -0.2331 -0.4172 -0.1145
 9354SOL    HW129503   4.077   3.010  11.607  0.0195 -0.0441 -0.9608
 9354SOL    HW229504   4.156   2.881  11.619  0.4895  0.2757 -0.5941
 9355SOL     OW29505   4.997   1.012   1.910  0.2432  0.2845 -0.3777
 9355SOL    HW129506   4.984   1.087   1.853  0.9222 -0.5776 -1.7406
 9355SOL    HW229507   5.033   0.945   1.853 -0.4357 -1.1243  0.7737
 9356SOL     OW29508   2.752   7.672   3.217 -0.1898 -0.2914 -0.1656
 9356SOL    HW129509   2.688   7.732   3.178  1.2986  1.3842 -0.1897
 9356SOL    HW229510   2.781   7.718   3.296  2.8764  0.3156 -1.5122
 9357SOL     OW29511   6.531   3.980   6.719 -0.0693 -0.5355  0.1253
 9357SOL    HW129512   6.484   3.917   6.773 -1.4378 -0.0447 -0.4489
 9357SOL    HW229513   6.466   4.014   6.659  0.5081  1.7118  0.6574
 9358SOL     OW29514   5.574   0.291   6.891  0.4689  0.1272  0.1418
 9358SOL    HW129515   5.507   0.271   6.825  0.8253 -0.4596 -0.0505
 9358SOL    HW229516   5.541   0.251   6.972 -0.1129  1.1028  0.4069
 9359SOL     OW29517   1.127   7.422   8.118  0.4770  0.1657  0.2386
 9359SOL    HW129518   1.157   7.336   8.148  0.3937 -0.2605 -0.8316
 9359SOL    HW229519   1.158   7.427   8.027 -0.6535  0.7011 -0.1416
 9360SOL     OW29520   0.261   3.519   0.391 -0.0396  0.0116 -0.3252
 9360SOL    HW129521   0.272   3.561   0.476 -0.2708 -1.7456  0.6133
 9360SOL    HW229522   0.300   3.581   0.329  0.2048  1.2988  1.0413
 9361SOL     OW29523   4.536   4.529   0.564  0.7378  0.7067 -0.0960
 9361SOL    HW129524   4.613   4.565   0.607  1.0842  0.9784 -0.9254
 9361SOL    HW229525   4.545   4.556   0.473 -0.4456  0.9171 -0.1611
 9362SOL     OW29526   5.941   7.341   3.403 -0.1992 -0.3621  0.2261
 9362SOL    HW129527   5.878   7.278   3.368  0.6695 -1.4584  0.5641
 9362SOL    HW229528   5.949   7.319   3.495  1.6207 -1.1158 -0.0644
 9363SOL     OW29529   6.414   2.636   8.929  0.2235  0.1018  0.5546
 9363SOL    HW129530   6.409   2.669   9.019 -0.0712  1.3880  0.0942
 9363SOL    HW229531   6.329   2.594   8.914 -0.2469  1.0686  0.4530
 9364SOL     OW29532   2.161   1.640   0.363  0.2045 -0.4061  0.2852
 9364SOL    HW129533   2.152   1.550   0.332 -2.7235 -0.0470 -0.1738
 9364SOL    HW229534   2.178   1.632   0.457 -0.1903 -1.4328  0.2762
 9365SOL     OW29535   7.145   7.567   3.800  0.1933  0.1880 -1.1841
 9365SOL    HW129536   7.097   7.649   3.806 -0.6284 -0.2973 -0.9546
 9365SOL    HW229537   7.215   7.576   3.865 -1.1945 -0.1187  0.4569
 9366SOL     OW29538   3.287   0.711   3.926  0.4574  0.5142 -0.2655
 9366SOL    HW129539   3.319   0.632   3.883  0.6466  0.9785 -0.9992
 9366SOL    HW229540   3.243   0.679   4.005  2.1169 -0.1930  0.4336
 9367SOL     OW29541   2.365   7.806  11.939 -0.7219  0.0537  0.0678
 9367SOL    HW129542   2.280   7.848  11.931 -2.4487 -3.0286  0.7244
 9367SOL    HW229543   2.361   7.730  11.880  3.0971  1.7998 -2.9146
 9368SOL     OW29544   1.320   2.887   6.893  0.5161  0.3856 -0.0772
 9368SOL    HW129545   1.361   2.874   6.978  0.8625  0.6039 -0.2080
 9368SOL    HW229546   1.393   2.902   6.833  0.4355 -1.7211 -0.7968
 9369SOL     OW29547   4.124   5.033   6.069 -0.2160  0.3095  0.2165
 9369SOL    HW129548   4.113   4.965   6.135  1.5558  1.2283  1.5355
 9369SOL    HW229549   4.136   4.985   5.987 -0.0700 -0.9392  0.9485
 9370SOL     OW29550   4.712   5.259   5.413 -0.1237 -0.0449  0.8773
 9370SOL    HW129551   4.674   5.179   5.449  0.0447 -0.5436 -0.0348
 9370SOL    HW229552   4.649   5.327   5.434  0.2300 -0.2114  2.6154
 9371SOL     OW29553   3.578   6.493  10.612 -0.1984 -0.1339 -0.3798
 9371SOL    HW129554   3.578   6.571  10.668 -1.6125  1.1038 -1.9643
 9371SOL    HW229555   3.668   6.484  10.582  0.0872  0.5914  0.2424
 9372SOL     OW29556   2.450   2.496   3.672 -0.0776 -0.4193  0.2837
 9372SOL    HW129557   2.534   2.487   3.719 -0.7546  1.5250  2.0465
 9372SOL    HW229558   2.384   2.479   3.739 -1.0947  0.0337 -0.5906
 9373SOL     OW29559   3.029   4.925  11.767 -0.1880  0.3956  0.1105
 9373SOL    HW129560   2.948   4.970  11.790 -0.9755  1.2160 -3.6369
 9373SOL    HW229561   3.098   4.980  11.801 -1.2073  1.6927  0.1424
 9374SOL     OW29562   4.003   5.219   0.351  0.0701 -0.3978  0.2836
 9374SOL    HW129563   3.948   5.159   0.401  0.0165 -0.8650 -0.3266
 9374SOL    HW229564   3.952   5.239   0.272  0.4837 -0.2953  0.0386
 9375SOL     OW29565   1.839   6.913  11.032  0.7193  0.0136  0.5797
 9375SOL    HW129566   1.842   6.877  10.943  0.5827 -0.1555  0.6432
 9375SOL    HW229567   1.798   6.845  11.084  0.4148  0.2790  0.6908
 9376SOL     OW29568   0.383   7.879   3.641  0.0689 -0.0926  0.5441
 9376SOL    HW129569   0.331   7.952   3.675 -1.3357 -1.5872  1.7938
 9376SOL    HW229570   0.372   7.809   3.706  1.0356 -1.5595 -0.7811
 9377SOL     OW29571   2.121   3.636   7.754  0.1026 -0.0146 -0.3417
 9377SOL    HW129572   2.152   3.626   7.844  0.4434  0.2195 -0.4333
 9377SOL    HW229573   2.188   3.689   7.711 -0.0951 -0.0654 -0.7154
 9378SOL     OW29574   2.671   3.924  12.173 -0.5498 -0.0290 -0.4221
 9378SOL    HW129575   2.715   3.942  12.090 -0.7442  0.0866 -0.5005
 9378SOL    HW229576   2.740   3.928  12.238 -0.2986 -0.6449 -0.6385
 9379SOL     OW29577   3.488   0.557  10.517  0.5260  0.2291  0.0611
 9379SOL    HW129578   3.516   0.597  10.599  0.4573  0.7935 -0.1848
 9379SOL    HW229579   3.451   0.630  10.467 -0.5752 -0.3375  0.0280
 9380SOL     OW29580   1.292   3.027   5.961 -0.4707 -0.3971  0.1505
 9380SOL    HW129581   1.371   3.018   5.907 -0.3571 -0.8016  0.3774
 9380SOL    HW229582   1.315   3.093   6.027 -0.2329 -0.6942  0.3694
 9381SOL     OW29583   6.184   4.485  11.834  0.1967  0.2769  0.2485
 9381SOL    HW129584   6.215   4.395  11.828  1.0824  0.5532  0.6584
 9381SOL    HW229585   6.234   4.532  11.767  0.3805  0.6395  0.6357
 9382SOL     OW29586   3.985   6.718   6.486  0.1650 -0.0831 -0.7020
 9382SOL    HW129587   4.024   6.638   6.452  2.2317  1.7447 -2.9928
 9382SOL    HW229588   3.898   6.721   6.445  0.4891 -0.6492 -1.4613
 9383SOL     OW29589   0.064   7.908   0.552 -0.1070 -0.0071 -0.7303
 9383SOL    HW129590  -0.030   7.921   0.563 -0.2629 -0.9557 -0.8539
 9383SOL    HW229591   0.078   7.919   0.457  0.0597  0.9873 -0.6036
 9384SOL     OW29592   3.042   7.012   6.401 -0.1608  0.2709  0.2850
 9384SOL    HW129593   3.096   7.075   6.449  0.2995  0.2133 -0.1474
 9384SOL    HW229594   3.073   6.926   6.433 -0.1329  0.2425  0.1813
 9385SOL     OW29595   1.944   6.443   3.133 -0.3613 -0.4203 -0.1561
 9385SOL    HW129596   1.968   6.525   3.089  0.7118 -1.9761 -2.6840
 9385SOL    HW229597   2.024   6.417   3.180 -0.9040  0.2466  1.1986
 9386SOL     OW29598   7.788   5.151  10.272  0.4318 -0.0107  0.4393
 9386SOL    HW129599   7.752   5.065  10.253  1.8566 -0.4978 -0.1696
 9386SOL    HW229600   7.820   5.145  10.362  1.5733 -0.5097  0.0175
 9387SOL     OW29601   4.988   6.925  10.571 -0.1026 -0.0084 -0.2772
 9387SOL    HW129602   5.079   6.939  10.544 -0.0984 -0.3966 -0.4830
 9387SOL    HW229603   4.989   6.933  10.666  0.0759  0.3742 -0.3110
 9388SOL     OW29604   4.401   4.625   9.977  0.2569  0.1831 -0.4676
 9388SOL    HW129605   4.463   4.597   9.910  0.1885 -0.9092 -0.0883
 9388SOL    HW229606   4.338   4.553   9.983  0.7878 -0.1700  1.4147
 9389SOL     OW29607   0.646   7.846   2.262  0.5990 -0.7658  0.0228
 9389SOL    HW129608   0.664   7.900   2.340  0.2822 -1.0982  0.3289
 9389SOL    HW229609   0.568   7.886   2.223 -0.8303 -2.1176  1.3271
 9390SOL     OW29610   6.657   3.714   9.940 -0.0717 -0.2979 -0.1033
 9390SOL    HW129611   6.659   3.695  10.034 -1.6525  0.0327  0.0156
 9390SOL    HW229612   6.748   3.737   9.918  0.1119  0.7494  1.5808
 9391SOL     OW29613   5.771   6.637  10.871 -0.4367 -0.0250 -0.3798
 9391SOL    HW129614   5.723   6.567  10.828  1.4509 -2.6780  1.5071
 9391SOL    HW229615   5.740   6.635  10.962  1.9965 -0.8100  0.5212
 9392SOL     OW29616   3.960   5.158   1.421 -0.5582 -0.4484  0.0384
 9392SOL    HW129617   4.001   5.242   1.441 -2.0120  0.3582 -0.2204
 9392SOL    HW229618   4.020   5.093   1.457  0.2013  0.7280  0.9779
 9393SOL     OW29619   7.114   5.511   1.376 -0.4538  0.2521 -0.0481
 9393SOL    HW129620   7.032   5.505   1.328 -1.5147 -0.7947  1.7684
 9393SOL    HW229621   7.158   5.427   1.360 -0.4540  0.2057  0.1833
 9394SOL     OW29622   7.654   7.872   0.321 -0.7264  0.4079  0.3375
 9394SOL    HW129623   7.592   7.886   0.392  0.4677 -1.0398  1.7502
 9394SOL    HW229624   7.718   7.942   0.330  0.2617 -0.6022  1.7262
 9395SOL     OW29625   0.153   0.235   7.344  0.6394 -0.1196  0.2252
 9395SOL    HW129626   0.066   0.270   7.325  0.6424 -1.4448 -2.9225
 9395SOL    HW229627   0.214   0.300   7.309  0.7491 -0.9479 -1.2208
 9396SOL     OW29628   5.409   6.675   7.756 -0.2744  0.3999  0.4059
 9396SOL    HW129629   5.313   6.677   7.754 -0.5355 -0.3686  3.9890
 9396SOL    HW229630   5.435   6.679   7.665 -3.7371 -0.4526 -0.7917
 9397SOL     OW29631   6.696   1.727   2.285  0.0932  0.4695  0.3567
 9397SOL    HW129632   6.731   1.781   2.214 -0.3518  0.6213  0.2494
 9397SOL    HW229633   6.714   1.777   2.365  2.6723 -0.7356  0.6254
 9398SOL     OW29634   1.342   1.363   2.841  0.2196 -1.2697  0.0996
 9398SOL    HW129635   1.385   1.295   2.893 -0.6314 -0.8633  1.3888
 9398SOL    HW229636   1.250   1.361   2.870  0.4075  1.2565  1.1672
 9399SOL     OW29637   5.782   2.544  10.581 -0.1912 -0.5858  0.1813
 9399SOL    HW129638   5.784   2.591  10.497 -1.0433 -0.6412  0.1209
 9399SOL    HW229639   5.723   2.596  10.636 -0.3517 -1.0425  0.4426
 9400SOL     OW29640   3.111   5.032   1.597  0.1639 -0.1447 -0.0863
 9400SOL    HW129641   3.132   5.083   1.519  2.3297 -1.6560 -0.5692
 9400SOL    HW229642   3.058   4.959   1.564  0.5296 -0.4273 -0.0545
 9401SOL     OW29643   5.768   0.289   3.076  0.0190 -0.1819 -0.0969
 9401SOL    HW129644   5.726   0.298   2.990  1.3094 -0.1768 -0.7608
 9401SOL    HW229645   5.840   0.352   3.073 -0.3967  0.3864  1.3097
 9402SOL     OW29646   4.646   5.774  11.827  0.2018 -0.1853  0.2111
 9402SOL    HW129647   4.571   5.834  11.817  0.8154  0.3493 -1.5348
 9402SOL    HW229648   4.612   5.689  11.800  0.1274 -0.0173 -0.2298
 9403SOL     OW29649   2.369   1.223  11.489  0.4205 -0.1128 -0.0048
 9403SOL    HW129650   2.395   1.288  11.555  1.1321  0.4966 -0.8653
 9403SOL    HW229651   2.372   1.139  11.536  1.2242  0.2721  0.6605
 9404SOL     OW29652   3.347   0.505   0.841 -0.5371  0.0448  0.1232
 9404SOL    HW129653   3.261   0.528   0.876 -2.6865 -2.4242 -2.9926
 9404SOL    HW229654   3.354   0.410   0.857  1.2324  0.0407 -0.4658
 9405SOL     OW29655   2.266   7.221   6.693 -0.1466  0.3534  0.0760
 9405SOL    HW129656   2.324   7.209   6.768 -0.3755 -0.1701  0.1750
 9405SOL    HW229657   2.313   7.182   6.620 -0.9128 -1.2464  0.4069
 9406SOL     OW29658   2.562   5.007   7.002  0.2250  0.3384  0.5496
 9406SOL    HW129659   2.491   5.064   6.973  0.5082  0.5808  0.3186
 9406SOL    HW229660   2.527   4.918   6.995  0.4874  0.3316 -1.1806
 9407SOL     OW29661   4.717   7.208   3.582  0.0636 -0.5795 -0.3342
 9407SOL    HW129662   4.755   7.294   3.596  0.7729 -0.4471 -2.7537
 9407SOL    HW229663   4.701   7.174   3.671 -0.8715  2.2692  0.6739
 9408SOL     OW29664   1.991   1.144  10.379 -0.4189  0.8217  0.1435
 9408SOL    HW129665   2.083   1.168  10.377 -0.1247 -0.1803 -2.1572
 9408SOL    HW229666   1.944   1.227  10.390  0.7145  1.5955 -0.7204
 9409SOL     OW29667   7.280   5.258   7.251  0.1655 -0.8149 -0.2561
 9409SOL    HW129668   7.241   5.191   7.307  0.9751 -1.4033 -0.3857
 9409SOL    HW229669   7.319   5.321   7.312  0.0954 -0.8729 -0.1510
 9410SOL     OW29670   6.861   1.800  10.462 -0.0224 -0.2942  0.0166
 9410SOL    HW129671   6.942   1.753  10.442 -1.1527 -1.3304 -2.8093
 9410SOL    HW229672   6.866   1.880  10.409 -0.6324 -0.1514  0.1622
 9411SOL     OW29673   5.958   2.357   4.924  0.3053  0.3452 -0.2323
 9411SOL    HW129674   5.882   2.323   4.877  0.5640 -0.4187 -0.1112
 9411SOL    HW229675   5.923   2.384   5.010 -0.3614  2.6703 -1.1583
 9412SOL     OW29676   5.872   5.606   6.870  0.2750 -0.0437 -0.8361
 9412SOL    HW129677   5.877   5.521   6.824 -1.3776 -0.0197 -1.1305
 9412SOL    HW229678   5.790   5.645   6.839  0.8906  1.5740 -0.5200
 9413SOL     OW29679   1.624   0.538   5.549 -0.5451 -0.1871  0.3905
 9413SOL    HW129680   1.538   0.567   5.577 -0.0264  0.4010  1.4148
 9413SOL    HW229681   1.610   0.450   5.515 -1.8286  0.5311 -1.0514
 9414SOL     OW29682   3.545   3.966   4.212  0.1347  0.2606 -0.0956
 9414SOL    HW129683   3.450   3.978   4.219 -0.9450 -2.2287 -5.6679
 9414SOL    HW229684   3.559   3.874   4.234  0.9447  0.1727 -0.9245
 9415SOL     OW29685   2.319   3.965   2.712  0.3189 -0.1990  0.5934
 9415SOL    HW129686   2.403   3.942   2.672  0.0280  0.4752 -0.4665
 9415SOL    HW229687   2.318   4.060   2.714 -0.5521 -0.1855  0.2687
 9416SOL     OW29688   7.196   5.077  11.095 -0.1691 -0.0002  0.1543
 9416SOL    HW129689   7.147   5.004  11.134  0.3335 -0.0416  0.7143
 9416SOL    HW229690   7.149   5.155  11.124 -0.6622 -0.0882 -0.3821
 9417SOL     OW29691   0.919   3.525   6.830 -0.1278  0.4305 -0.9404
 9417SOL    HW129692   0.878   3.609   6.851 -1.0421 -0.0368 -0.7724
 9417SOL    HW229693   0.860   3.460   6.869  0.7876 -0.2742 -0.6933
 9418SOL     OW29694   5.009   4.420  12.237  0.1942 -0.1384 -0.1147
 9418SOL    HW129695   5.057   4.502  12.222  0.1170  0.4855  2.5242
 9418SOL    HW229696   5.075   4.352  12.232  0.5254  0.2243 -0.8598
 9419SOL     OW29697   3.345   1.119   6.977 -0.0245 -0.3447 -0.9149
 9419SOL    HW129698   3.421   1.060   6.974  0.5562  0.2536  1.0448
 9419SOL    HW229699   3.295   1.091   7.053 -0.7874  0.4711 -1.0984
 9420SOL     OW29700   3.405   3.608  12.086  0.1739 -0.1494  0.2321
 9420SOL    HW129701   3.359   3.602  12.003  0.1753  1.0324  0.1325
 9420SOL    HW229702   3.350   3.665  12.140  1.5276  1.3762  0.0750
 9421SOL     OW29703   2.274   0.065   1.536 -0.6489 -0.1683  0.0855
 9421SOL    HW129704   2.280   0.088   1.629 -0.3886  0.9873 -0.2005
 9421SOL    HW229705   2.307  -0.025   1.532  0.7334  0.2694  0.9176
 9422SOL     OW29706   6.855   2.504   3.517  0.1617 -0.1138 -0.3191
 9422SOL    HW129707   6.924   2.564   3.490  0.5340 -0.4199 -0.0564
 9422SOL    HW229708   6.804   2.553   3.581 -0.3466  0.3948 -1.0935
 9423SOL     OW29709   1.734   5.547   5.738 -0.3685 -0.2735 -0.0047
 9423SOL    HW129710   1.687   5.537   5.821  0.3494  1.4377  0.6583
 9423SOL    HW229711   1.665   5.567   5.675 -0.6330  2.4404  1.0023
 9424SOL     OW29712   1.738   0.606   0.561  0.0134 -0.3234 -0.1465
 9424SOL    HW129713   1.721   0.529   0.616 -0.6245 -0.5539 -0.6639
 9424SOL    HW229714   1.783   0.667   0.620 -2.0910  0.0865  1.1351
 9425SOL     OW29715   1.112   1.320   0.095  0.2951 -0.1523 -0.0258
 9425SOL    HW129716   1.159   1.395   0.131 -1.2499  0.3313  1.0998
 9425SOL    HW229717   1.047   1.359   0.036 -0.0637 -0.6639  0.0293
 9426SOL     OW29718   6.078   3.111   4.924  0.3739  0.6699 -0.2806
 9426SOL    HW129719   6.049   3.171   4.993  0.4810 -0.4493  0.7641
 9426SOL    HW229720   6.055   3.156   4.843 -0.8882  1.4738  0.4882
 9427SOL     OW29721   7.297   4.776  10.470 -0.2855 -0.5111 -0.3985
 9427SOL    HW129722   7.371   4.721  10.495 -0.4560 -0.5954 -0.0741
 9427SOL    HW229723   7.325   4.820  10.390  0.5533  0.3238  0.3282
 9428SOL     OW29724   0.577   6.851  12.246 -0.0909  0.2623  0.2352
 9428SOL    HW129725   0.559   6.888  12.332  0.7666  1.3264 -0.0239
 9428SOL    HW229726   0.505   6.882  12.191 -0.8066 -0.6733  0.6206
 9429SOL     OW29727   3.395   1.058  11.367 -0.1842  0.2157 -0.5397
 9429SOL    HW129728   3.319   1.116  11.371  0.5916  1.2594 -0.7800
 9429SOL    HW229729   3.456   1.101  11.308  0.7386 -0.4582 -0.1049
 9430SOL     OW29730   5.239   6.827   9.176  0.0401  0.5143  0.2985
 9430SOL    HW129731   5.204   6.791   9.095  2.0879  1.0512 -0.8769
 9430SOL    HW229732   5.184   6.903   9.194 -0.6255  0.2128 -0.4186
 9431SOL     OW29733   0.944   7.233   8.416  0.2910 -0.0984  0.0491
 9431SOL    HW129734   0.865   7.238   8.363  1.5504 -0.0427 -1.8901
 9431SOL    HW229735   0.917   7.184   8.494 -1.9404  1.0220  0.0393
 9432SOL     OW29736   7.173   5.111   1.883  0.1993 -0.5998  0.2630
 9432SOL    HW129737   7.232   5.048   1.841  0.6567  0.5799 -0.9378
 9432SOL    HW229738   7.104   5.125   1.818  0.4524  0.6067  0.2293
 9433SOL     OW29739   0.124   1.020   7.492 -0.0908  0.0521 -0.0696
 9433SOL    HW129740   0.042   1.016   7.443 -0.3070  1.5759  0.1341
 9433SOL    HW229741   0.141   1.114   7.502  1.4852 -0.2469  0.2122
 9434SOL     OW29742   4.297   0.959   7.538 -0.4223 -0.5430 -0.0098
 9434SOL    HW129743   4.205   0.935   7.525 -0.5230 -0.0981 -0.1532
 9434SOL    HW229744   4.341   0.930   7.458 -0.7419  0.7046 -0.6700
 9435SOL     OW29745   7.126   7.485   3.534 -0.5315 -0.3514 -0.0443
 9435SOL    HW129746   7.114   7.497   3.628 -0.8426 -0.4313 -0.0755
 9435SOL    HW229747   7.221   7.479   3.523 -0.5483 -1.8900  0.4438
 9436SOL     OW29748   4.995   0.160   3.897  1.2028 -0.3780  0.2112
 9436SOL    HW129749   5.065   0.116   3.850 -0.4362 -1.5691 -1.2573
 9436SOL    HW229750   4.992   0.248   3.861  0.8206 -0.8778 -1.0177
 9437SOL     OW29751   4.633   3.844   5.930  0.1308  0.5903  0.0099
 9437SOL    HW129752   4.572   3.834   5.857  0.4553  2.0722 -0.5025
 9437SOL    HW229753   4.711   3.795   5.902  0.7936  2.3081 -1.3290
 9438SOL     OW29754   4.853   4.560   9.672  0.6806  0.0825 -0.2957
 9438SOL    HW129755   4.839   4.484   9.728  2.2768 -0.2667 -0.3317
 9438SOL    HW229756   4.773   4.612   9.682  0.0032 -1.0731  0.5435
 9439SOL     OW29757   4.048   7.432   8.787  0.2219 -0.0220  0.0991
 9439SOL    HW129758   3.979   7.366   8.782  1.3190 -1.1900 -0.1509
 9439SOL    HW229759   4.053   7.470   8.699 -0.8158  0.8462  0.3989
 9440SOL     OW29760   1.469   6.687  12.308 -0.1231 -0.4286  0.4034
 9440SOL    HW129761   1.458   6.762  12.250  1.1578  1.3803  2.3901
 9440SOL    HW229762   1.522   6.625  12.257  1.2563  1.2417 -0.2815
 9441SOL     OW29763   5.926   3.095   8.820  0.1407 -0.0496  0.0918
 9441SOL    HW129764   6.002   3.144   8.853  0.9720 -1.1621 -0.0984
 9441SOL    HW229765   5.917   3.022   8.881  1.7092 -2.1673 -2.0282
 9442SOL     OW29766   7.740   5.551   1.357  0.5855 -0.1796  0.3243
 9442SOL    HW129767   7.675   5.615   1.328  0.4654  0.2794  1.5399
 9442SOL    HW229768   7.691   5.470   1.367  0.8793 -0.7236 -1.9516
 9443SOL     OW29769   5.843   0.039   3.182  0.1340 -0.1457  0.3908
 9443SOL    HW129770   5.825   0.127   3.149 -0.6760 -0.1315  0.8347
 9443SOL    HW229771   5.901  -0.000   3.117  1.1775  0.9958  0.5936
 9444SOL     OW29772   0.609   6.073   5.722 -0.2335  0.1101 -0.1049
 9444SOL    HW129773   0.585   6.160   5.689  0.3591  1.2895  2.3377
 9444SOL    HW229774   0.599   6.080   5.817  0.9228 -2.1688  0.2504
 9445SOL     OW29775   6.955   1.263   3.949 -0.1650  0.0253  0.0166
 9445SOL    HW129776   6.936   1.334   4.010  1.3892  0.5513 -0.0622
 9445SOL    HW229777   6.960   1.185   4.005  0.0811  0.3119  0.4070
 9446SOL     OW29778   1.159   4.369   1.672  0.0338 -0.1183 -0.3700
 9446SOL    HW129779   1.197   4.394   1.757  0.4705 -0.4532 -0.4610
 9446SOL    HW229780   1.077   4.417   1.667  0.5460  0.7927 -0.2566
 9447SOL     OW29781   7.870   1.713   2.276 -0.0934  0.0026 -0.1920
 9447SOL    HW129782   7.953   1.713   2.228  0.5673  0.1848  0.9087
 9447SOL    HW229783   7.803   1.711   2.208  0.8052  0.2981 -1.1181
 9448SOL     OW29784   1.945   3.232   2.954  0.0298 -0.2761  0.1511
 9448SOL    HW129785   1.970   3.322   2.974  0.6388 -0.2093 -0.8904
 9448SOL    HW229786   1.926   3.232   2.860 -1.4521 -0.8969  0.4195
 9449SOL     OW29787   7.458   1.481   7.321  0.5732  0.2716 -0.2975
 9449SOL    HW129788   7.507   1.527   7.389  2.4330 -0.4213 -1.1046
 9449SOL    HW229789   7.508   1.494   7.241  0.5527 -2.1303 -0.7774
 9450SOL     OW29790   2.816   3.459  12.038  0.3170  0.4938 -0.3939
 9450SOL    HW129791   2.802   3.380  11.987  0.9440 -2.1200  3.1285
 9450SOL    HW229792   2.903   3.449  12.076  0.0718  2.4230  0.8555
 9451SOL     OW29793   6.609   2.932   8.981 -0.4478  0.5343  0.3519
 9451SOL    HW129794   6.539   2.907   8.920 -1.3141  2.1699  0.6305
 9451SOL    HW229795   6.664   2.854   8.988 -1.4971 -0.3500 -0.9124
 9452SOL     OW29796   5.702   3.223   4.126  0.0670  0.1128 -0.4014
 9452SOL    HW129797   5.692   3.148   4.068  2.6072  0.2409 -1.1275
 9452SOL    HW229798   5.708   3.299   4.068  0.2148  0.5435  0.1630
 9453SOL     OW29799   1.540   0.232   4.032  0.0120  0.2970 -0.3237
 9453SOL    HW129800   1.460   0.255   4.080  1.0806  0.5122  1.4509
 9453SOL    HW229801   1.520   0.149   3.990 -0.7692 -0.2584  1.0923
 9454SOL     OW29802   3.231   7.934   2.409  0.0633  0.2378 -0.8701
 9454SOL    HW129803   3.150   7.933   2.357  0.6060  0.5673 -1.7568
 9454SOL    HW229804   3.233   7.849   2.453 -0.8375  0.2905 -0.7126
 9455SOL     OW29805   2.864   0.022   2.438  0.4505  0.2661 -0.2008
 9455SOL    HW129806   2.810  -0.056   2.451 -0.3357  0.6403 -1.0998
 9455SOL    HW229807   2.921  -0.000   2.364  0.1702  0.5694 -0.5086
 9456SOL     OW29808   6.497   0.694  10.340  0.1265  0.2291  0.4289
 9456SOL    HW129809   6.577   0.746  10.339 -0.3244  0.9277 -0.3593
 9456SOL    HW229810   6.515   0.625  10.404  0.3393  1.9883  2.4051
 9457SOL     OW29811   1.102   5.805   2.479 -0.0691  0.2085  0.1631
 9457SOL    HW129812   1.021   5.846   2.509  0.0797  0.4508  0.2276
 9457SOL    HW229813   1.165   5.876   2.472 -0.5531  0.5152 -2.3836
 9458SOL     OW29814   1.524   1.989   5.159  0.2885 -0.3746 -0.2301
 9458SOL    HW129815   1.590   2.047   5.197 -0.0763  0.4241 -0.7898
 9458SOL    HW229816   1.515   2.019   5.068 -0.1629 -1.0775 -0.4211
 9459SOL     OW29817   1.752   1.385   1.197 -0.5162 -0.6417  0.8682
 9459SOL    HW129818   1.775   1.447   1.266  0.7261 -0.2585  0.1321
 9459SOL    HW229819   1.801   1.306   1.219 -0.1415 -0.5288  0.4384
 9460SOL     OW29820   6.306   3.094   8.738 -0.0454  0.1895 -0.3080
 9460SOL    HW129821   6.360   3.018   8.761 -0.0809 -0.0754 -1.0837
 9460SOL    HW229822   6.302   3.093   8.643  2.1768  2.6863 -0.5614
 9461SOL     OW29823   7.528   1.227   6.459  0.0868 -0.2287 -0.0340
 9461SOL    HW129824   7.539   1.148   6.407  1.8926  0.4140 -0.6805
 9461SOL    HW229825   7.538   1.299   6.397  1.8735  0.5465  1.0865
 9462SOL     OW29826   1.407   6.394   9.141 -0.1602  0.5871 -0.0290
 9462SOL    HW129827   1.468   6.452   9.097  0.5945  0.7001  1.1092
 9462SOL    HW229828   1.445   6.381   9.228 -1.7191  0.5935  0.6881
 9463SOL     OW29829   6.206   0.442   1.271 -0.0308 -0.3163 -0.0190
 9463SOL    HW129830   6.239   0.514   1.218 -1.6003 -0.2556 -0.9639
 9463SOL    HW229831   6.184   0.482   1.355 -3.9097  1.1593 -1.5018
 9464SOL     OW29832   7.505   3.884   3.439  0.5046 -0.1088 -0.6892
 9464SOL    HW129833   7.549   3.805   3.407  1.4381  0.7809 -1.6804
 9464SOL    HW229834   7.573   3.932   3.485 -0.2558 -0.2273  0.6258
 9465SOL     OW29835   7.143   7.944   4.041  0.0801 -0.3341 -0.5916
 9465SOL    HW129836   7.173   8.035   4.039 -0.1646 -0.2467 -2.9485
 9465SOL    HW229837   7.219   7.893   4.013  0.1840 -0.8747  0.6090
 9466SOL     OW29838   3.922   4.710   6.918 -0.2976  0.3246 -0.6321
 9466SOL    HW129839   3.963   4.710   6.831  0.3355  2.3402 -0.3781
 9466SOL    HW229840   3.920   4.802   6.943 -1.3162 -0.1414  1.1187
 9467SOL     OW29841   3.122   7.274   8.799  0.0258  0.2627 -0.2543
 9467SOL    HW129842   3.065   7.282   8.722 -0.0594  2.1155 -0.0297
 9467SOL    HW229843   3.140   7.364   8.825  0.9065 -0.3299  1.2874
 9468SOL     OW29844   3.474   3.608  10.333  0.3625  0.2843  0.1347
 9468SOL    HW129845   3.453   3.547  10.262 -1.9455  0.7679  0.3343
 9468SOL    HW229846   3.409   3.591  10.400  0.2496  2.3050  0.6051
 9469SOL     OW29847   3.289   0.298  12.143 -0.2019  0.1859  0.0679
 9469SOL    HW129848   3.291   0.334  12.055 -3.2663  1.9670  0.5826
 9469SOL    HW229849   3.273   0.205  12.131 -2.2106  0.6535 -1.3239
 9470SOL     OW29850   2.798   4.841   2.141 -0.3766 -0.3442  0.0151
 9470SOL    HW129851   2.868   4.782   2.167 -0.1984  0.4331  1.3816
 9470SOL    HW229852   2.787   4.825   2.047  1.7753 -0.3191 -0.2820
 9471SOL     OW29853   4.041   7.837   4.926 -0.3982 -0.6688  0.0916
 9471SOL    HW129854   3.962   7.817   4.875 -1.0569  0.2128  0.7390
 9471SOL    HW229855   4.041   7.932   4.934  0.1767 -0.7364  0.9818
 9472SOL     OW29856   4.575   5.960   2.932 -0.7118  0.4807 -0.8900
 9472SOL    HW129857   4.580   6.052   2.958  0.1512  0.6860 -1.7175
 9472SOL    HW229858   4.491   5.930   2.966 -0.6418  1.3464  0.0978
 9473SOL     OW29859   1.900   6.489   9.615 -0.6050  0.1386 -0.2196
 9473SOL    HW129860   1.862   6.576   9.605 -0.9214 -0.2327 -3.2541
 9473SOL    HW229861   1.944   6.472   9.531 -0.4814 -2.5837  0.2948
 9474SOL     OW29862   2.327   2.701   7.996 -0.0150 -0.4122  0.3750
 9474SOL    HW129863   2.420   2.691   7.974  0.6046  0.4127  2.4041
 9474SOL    HW229864   2.293   2.611   7.995  0.8941 -0.7665  0.0097
 9475SOL     OW29865   5.629   6.616   0.724  0.2840  0.5148 -0.0053
 9475SOL    HW129866   5.691   6.552   0.758  0.3279  0.4996 -0.1135
 9475SOL    HW229867   5.667   6.701   0.746 -0.4801  0.5089  1.4212
 9476SOL     OW29868   4.897   5.792   9.247 -0.0100  0.2913 -0.4502
 9476SOL    HW129869   4.851   5.865   9.289  2.1768  2.3140 -1.3694
 9476SOL    HW229870   4.869   5.795   9.156  0.8671  0.6793 -0.7169
 9477SOL     OW29871   2.781   7.689   4.848 -0.1960  0.4542  0.0068
 9477SOL    HW129872   2.715   7.635   4.892  0.0300  1.1661  1.2725
 9477SOL    HW229873   2.766   7.674   4.755 -0.6514 -1.1621  0.3096
 9478SOL     OW29874   2.356   6.164   9.726  0.4538 -0.2321  0.1847
 9478SOL    HW129875   2.344   6.231   9.793 -0.5663  1.1057 -1.2470
 9478SOL    HW229876   2.320   6.084   9.765  0.4665  0.3589  1.4511
 9479SOL     OW29877   7.810   7.033   4.223  0.4945  0.2092 -0.4610
 9479SOL    HW129878   7.800   7.123   4.255  0.0465  0.1289 -0.3609
 9479SOL    HW229879   7.775   6.978   4.293 -0.4280  0.0272 -1.0367
 9480SOL     OW29880   4.076   1.900   5.128  0.1134  0.2961  0.0909
 9480SOL    HW129881   3.988   1.936   5.142  0.5327  0.8458  1.5830
 9480SOL    HW229882   4.069   1.850   5.047 -1.9801 -0.9711  0.9553
 9481SOL     OW29883   0.942   5.207   7.947 -0.4214  0.5402 -0.1464
 9481SOL    HW129884   0.910   5.122   7.916  0.0428 -0.2381  1.4559
 9481SOL    HW229885   0.984   5.246   7.870  0.2530 -1.1067 -0.6461
 9482SOL     OW29886   0.414   7.349   1.509  0.1561  0.5239  0.7407
 9482SOL    HW129887   0.460   7.418   1.462  3.0604  0.0523  2.6197
 9482SOL    HW229888   0.406   7.382   1.599  0.7834 -1.1557  1.4588
 9483SOL     OW29889   1.960   5.178   8.401  0.0385  0.9255  0.1948
 9483SOL    HW129890   1.966   5.237   8.325 -0.6891  1.4574  0.5382
 9483SOL    HW229891   1.920   5.231   8.469 -2.4114 -0.4737 -0.0290
 9484SOL     OW29892   1.370   0.912  11.986 -0.2186  0.3203 -0.0143
 9484SOL    HW129893   1.341   0.969  12.057  0.2668  1.1334 -0.4462
 9484SOL    HW229894   1.402   0.972  11.918 -0.0696 -0.4544 -0.6554
 9485SOL     OW29895   6.684   3.542   6.941 -0.2069  0.3390 -0.1442
 9485SOL    HW129896   6.673   3.570   6.850 -2.0313  0.9264  0.1972
 9485SOL    HW229897   6.629   3.464   6.949  1.5574 -0.9467 -0.0187
 9486SOL     OW29898   3.623   2.726   6.059  0.3224 -0.5015  0.4093
 9486SOL    HW129899   3.697   2.783   6.037 -0.1169 -0.4106 -0.8904
 9486SOL    HW229900   3.547   2.771   6.024  0.0241 -2.1694 -1.2744
 9487SOL     OW29901   1.543   0.217  10.933 -0.2815  0.0880  0.1248
 9487SOL    HW129902   1.480   0.185  10.869 -0.5717  0.5625  0.1689
 9487SOL    HW229903   1.561   0.141  10.989  0.0309 -0.3502 -0.5550
 9488SOL     OW29904   2.691   5.916   6.147  0.0151 -0.0355 -0.3975
 9488SOL    HW129905   2.778   5.955   6.159  0.5647 -1.1490 -0.6233
 9488SOL    HW229906   2.693   5.879   6.059 -1.2402  1.2180 -1.0017
 9489SOL     OW29907   7.857   4.709   9.301  0.5837 -0.2870 -0.2813
 9489SOL    HW129908   7.917   4.635   9.298  1.3334  0.3279 -2.6425
 9489SOL    HW229909   7.770   4.669   9.313  0.9980 -1.5501 -1.2766
 9490SOL     OW29910   6.657   4.878   6.968 -0.0745  0.3566 -0.2641
 9490SOL    HW129911   6.709   4.956   6.949  0.7102 -0.2482 -0.6699
 9490SOL    HW229912   6.609   4.900   7.048  1.1746  0.7742  0.3941
 9491SOL     OW29913   4.247   2.569   5.079  0.1954  0.5431  0.4567
 9491SOL    HW129914   4.299   2.542   5.003 -0.4891 -0.1342  0.2062
 9491SOL    HW229915   4.260   2.663   5.086  0.8303  0.4978 -0.0688
 9492SOL     OW29916   4.435   7.070   9.677  0.2356  0.0997 -0.4510
 9492SOL    HW129917   4.382   7.146   9.700 -0.2853 -0.3812 -0.0311
 9492SOL    HW229918   4.377   7.014   9.625  0.6005 -0.0335 -0.7228
 9493SOL     OW29919   5.967   7.834   6.265  0.1860 -0.0103  0.2681
 9493SOL    HW129920   5.978   7.915   6.214 -0.7000  0.0075  0.0922
 9493SOL    HW229921   5.895   7.852   6.324 -0.4868 -0.9017 -0.2522
 9494SOL     OW29922   1.241   7.549   0.272  0.1264 -0.1200 -0.4507
 9494SOL    HW129923   1.183   7.474   0.262  1.1425 -0.9342 -0.3559
 9494SOL    HW229924   1.262   7.552   0.365  1.2168 -0.6027 -0.6599
 9495SOL     OW29925   7.799   4.819   2.431 -0.1183  0.3410 -0.0896
 9495SOL    HW129926   7.706   4.842   2.427 -0.5757 -1.3246  0.3072
 9495SOL    HW229927   7.827   4.847   2.518 -0.2793  0.7449 -0.1680
 9496SOL     OW29928   7.718   6.543   7.405  0.0411 -0.9119 -0.4108
 9496SOL    HW129929   7.666   6.622   7.424 -0.0340 -0.9243 -0.5699
 9496SOL    HW229930   7.744   6.511   7.492 -1.2450 -1.6092 -0.2473
 9497SOL     OW29931   3.836   2.479   0.292  0.1913  0.3985 -0.7018
 9497SOL    HW129932   3.800   2.390   0.287 -1.1686  0.8684 -0.0250
 9497SOL    HW229933   3.872   2.484   0.381 -1.8545  1.2123  0.1629
 9498SOL     OW29934   4.616   7.971   7.502  0.1175 -0.0872 -0.2266
 9498SOL    HW129935   4.542   7.911   7.492  0.4368 -0.7549  1.1410
 9498SOL    HW229936   4.640   7.965   7.595  2.6107 -0.7846 -0.8328
 9499SOL     OW29937   5.940   3.852   2.846 -0.0110 -0.1373  0.1222
 9499SOL    HW129938   6.020   3.900   2.865  0.4222 -1.2808  1.3157
 9499SOL    HW229939   5.882   3.918   2.806  1.4694  0.7193 -0.7253
 9500SOL     OW29940   7.923   5.489   5.202  0.1212 -0.0413  0.5696
 9500SOL    HW129941   7.980   5.429   5.249  1.8606 -0.9382 -2.4185
 9500SOL    HW229942   7.843   5.439   5.185  0.7688 -0.8529 -0.1669
 9501SOL     OW29943   2.223   0.944  12.382  0.2717  0.4099 -0.6509
 9501SOL    HW129944   2.194   0.857  12.355 -1.3386  1.0351 -1.0540
 9501SOL    HW229945   2.146   1.000  12.369  1.4212  1.9984 -0.8987
 9502SOL     OW29946   6.748   1.058   6.213  0.3767  0.0750 -0.0704
 9502SOL    HW129947   6.746   0.968   6.179 -1.6300  0.0567 -0.0317
 9502SOL    HW229948   6.738   1.113   6.135  1.7469  0.2848 -0.1096
 9503SOL     OW29949   5.954   1.389   1.388  0.4014  0.1506 -0.0683
 9503SOL    HW129950   5.924   1.402   1.298  1.5695  0.3946 -0.4340
 9503SOL    HW229951   6.004   1.469   1.408 -0.5558  0.4756  1.0974
 9504SOL     OW29952   6.918   6.098   4.351 -0.6500 -0.2749  0.1816
 9504SOL    HW129953   6.918   6.154   4.273  0.7406  2.0584  1.7472
 9504SOL    HW229954   6.890   6.156   4.422  1.0323 -1.4969  1.9333
 9505SOL     OW29955   7.226   7.053   5.258 -0.3390 -0.4264 -0.0850
 9505SOL    HW129956   7.218   6.996   5.335  0.9334 -0.1961  0.2388
 9505SOL    HW229957   7.263   7.134   5.292 -0.9376  0.1340 -0.7555
 9506SOL     OW29958   3.124   5.655  11.186 -0.0579  0.1985 -0.0843
 9506SOL    HW129959   3.210   5.642  11.146 -0.4337  0.3921 -0.9844
 9506SOL    HW229960   3.064   5.665  11.112 -0.8752 -0.0353  0.5285
 9507SOL     OW29961   0.424   0.095   4.963  0.3352  0.0301  0.3840
 9507SOL    HW129962   0.420   0.148   4.883  1.5669 -1.9427 -1.1001
 9507SOL    HW229963   0.474   0.148   5.025 -0.4218  1.5047 -0.2151
 9508SOL     OW29964   1.525   1.601   2.877 -0.1490 -0.1720  0.2383
 9508SOL    HW129965   1.454   1.537   2.871  0.5236 -0.9453  0.3315
 9508SOL    HW229966   1.602   1.553   2.846  0.0071  1.2068 -1.6740
 9509SOL     OW29967   4.876   3.631  12.294  0.1229  0.1208 -0.0637
 9509SOL    HW129968   4.848   3.654  12.382 -0.7851  0.7361 -0.5040
 9509SOL    HW229969   4.809   3.668  12.236  0.6211 -0.4032 -1.0049
 9510SOL     OW29970   4.099   0.595  12.332  0.1133 -0.4936  0.3493
 9510SOL    HW129971   4.040   0.531  12.291 -0.9639  0.6134  0.1389
 9510SOL    HW229972   4.139   0.641  12.257 -1.0329  0.7895  0.5020
 9511SOL     OW29973   5.672   1.051   9.082 -0.0428  0.2585  0.2831
 9511SOL    HW129974   5.726   1.129   9.091  3.0903 -1.6280 -0.6431
 9511SOL    HW229975   5.650   1.026   9.172 -1.1747  2.1824  0.5836
 9512SOL     OW29976   7.842   2.334   7.318 -0.2702 -0.7712 -0.5994
 9512SOL    HW129977   7.855   2.266   7.385 -2.3787  0.1758  0.8616
 9512SOL    HW229978   7.757   2.312   7.278 -1.8445  1.8337  1.0603
 9513SOL     OW29979   1.617   6.153   7.435  0.2104 -0.2012 -0.1627
 9513SOL    HW129980   1.675   6.081   7.460  2.0832  1.1386 -0.3735
 9513SOL    HW229981   1.630   6.162   7.340  0.9866  1.1576  0.0359
 9514SOL     OW29982   2.620   5.428   2.813  0.0992 -0.6015  0.4693
 9514SOL    HW129983   2.588   5.501   2.866  0.1750 -0.2957  0.1014
 9514SOL    HW229984   2.658   5.470   2.736 -1.6591 -1.0739 -0.7298
 9515SOL     OW29985   4.736   5.429   2.474  0.6449  0.4817 -0.3665
 9515SOL    HW129986   4.732   5.495   2.404  1.8305  1.2263  0.2317
 9515SOL    HW229987   4.677   5.463   2.541  0.5800  0.4884 -0.4266
 9516SOL     OW29988   6.306   1.946   1.668  0.4616 -0.2860 -0.2808
 9516SOL    HW129989   6.318   1.900   1.752  0.2782 -0.0641 -0.1332
 9516SOL    HW229990   6.394   1.974   1.644  0.3173  1.0032  0.6065
 9517SOL     OW29991   1.901   7.711  10.212 -0.5567  0.2558 -0.4742
 9517SOL    HW129992   1.889   7.762  10.132  0.6987  0.8163 -0.3165
 9517SOL    HW229993   1.820   7.725  10.261 -1.6974 -0.7460 -1.9715
 9518SOL     OW29994   4.679   0.806   3.086  0.1234  0.6464 -0.2528
 9518SOL    HW129995   4.638   0.854   3.158 -2.7315 -2.6796  0.6155
 9518SOL    HW229996   4.745   0.750   3.128 -0.9394 -0.6649 -0.2761
 9519SOL     OW29997   4.279   7.968   8.919 -0.0141 -0.2107 -0.0183
 9519SOL    HW129998   4.306   7.992   8.830 -0.5214 -0.7514 -0.3262
 9519SOL    HW229999   4.235   7.884   8.908 -0.3536 -0.1280  0.7047
 9520SOL     OW30000   2.002   6.848   0.159 -0.4358 -0.0662 -0.4840
 9520SOL    HW130001   2.045   6.789   0.098 -1.9885 -1.2471 -0.5009
 9520SOL    HW230002   2.033   6.935   0.134 -0.2245 -0.6122 -2.2682
 9521SOL     OW30003   7.865   5.851  11.174  0.4367  0.0910  0.3437
 9521SOL    HW130004   7.875   5.941  11.204  2.5201  0.4901 -1.2833
 9521SOL    HW230005   7.948   5.808  11.196  0.7385 -0.4975 -1.6544
 9522SOL     OW30006   6.074   4.801   6.766  0.0974 -0.3333 -0.4162
 9522SOL    HW130007   6.021   4.760   6.698  1.1091  0.1053 -1.4941
 9522SOL    HW230008   6.028   4.883   6.786 -1.2701 -1.3498  0.8833
 9523SOL     OW30009   0.314   0.071   8.429 -0.1479 -0.0817  0.3856
 9523SOL    HW130010   0.266   0.107   8.355  0.4849  0.2036  0.1107
 9523SOL    HW230011   0.331  -0.020   8.404  0.0642  0.0135  0.1735
 9524SOL     OW30012   6.946   3.071   9.202 -0.5158 -0.2216  0.7155
 9524SOL    HW130013   6.940   3.166   9.212  2.1719  0.1407 -0.2070
 9524SOL    HW230014   6.916   3.036   9.286  0.8461  1.6063  2.0534
 9525SOL     OW30015   2.325   4.958   9.623  0.5940  0.2896 -0.1585
 9525SOL    HW130016   2.311   4.865   9.605  0.4581  0.2407  0.1940
 9525SOL    HW230017   2.387   4.987   9.555  0.4345  0.0063 -0.4267
 9526SOL     OW30018   0.286   3.447   6.614 -0.4137  0.2741 -0.4758
 9526SOL    HW130019   0.359   3.502   6.587 -0.4494  0.4239 -0.2714
 9526SOL    HW230020   0.219   3.460   6.547 -0.8810  1.4043  0.1824
 9527SOL     OW30021   1.150   6.604   5.161  0.1387  0.3543 -0.6411
 9527SOL    HW130022   1.198   6.676   5.201  1.7884 -0.4244 -1.1644
 9527SOL    HW230023   1.217   6.541   5.134 -1.3145 -2.6027  2.0212
 9528SOL     OW30024   1.257   2.936   7.552 -0.4177  0.3217 -0.5482
 9528SOL    HW130025   1.168   2.901   7.561 -0.2371  0.1017  0.6815
 9528SOL    HW230026   1.298   2.883   7.484 -1.3594  0.7275 -1.4475
 9529SOL     OW30027   6.327   1.343   9.909  0.0263  0.5867 -0.2170
 9529SOL    HW130028   6.295   1.350   9.819 -1.0012  0.6472  0.1364
 9529SOL    HW230029   6.403   1.285   9.904 -0.0555  0.5531 -1.1107
 9530SOL     OW30030   1.453   4.839   4.953 -0.1860 -0.1389 -0.3548
 9530SOL    HW130031   1.395   4.863   4.880 -1.1017 -3.9042 -1.0502
 9530SOL    HW230032   1.541   4.836   4.914 -0.1955  0.8562 -0.4853
 9531SOL     OW30033   3.754   6.517   0.430 -0.2028 -0.4160  0.3853
 9531SOL    HW130034   3.729   6.433   0.392 -0.3984  0.0998 -0.6402
 9531SOL    HW230035   3.698   6.581   0.388  2.4842  0.7395 -1.7300
 9532SOL     OW30036   5.814   2.199   1.422 -0.1556 -0.1234  0.7335
 9532SOL    HW130037   5.787   2.142   1.350 -0.2246 -1.5145  1.8210
 9532SOL    HW230038   5.907   2.218   1.403 -0.0639 -0.7954  0.4897
 9533SOL     OW30039   6.013   7.625   3.596 -0.1349 -0.5302 -0.3866
 9533SOL    HW130040   6.090   7.574   3.568  1.0113  0.6577  0.4603
 9533SOL    HW230041   6.049   7.711   3.617 -1.7115  0.0262  0.1063
 9534SOL     OW30042   5.576   7.958  12.354  0.0888 -0.0850 -0.4712
 9534SOL    HW130043   5.609   7.928  12.270  0.9273  0.0677 -0.2031
 9534SOL    HW230044   5.636   7.921  12.418 -0.7794 -0.5407  0.0965
 9535SOL     OW30045   7.267   7.698   7.915  0.0778  0.1995 -0.3789
 9535SOL    HW130046   7.329   7.638   7.957 -1.4556 -0.9477  0.3078
 9535SOL    HW230047   7.245   7.761   7.983 -0.5787 -0.2439 -0.1713
 9536SOL     OW30048   4.453   6.242   0.864  0.0625  0.6921  0.3156
 9536SOL    HW130049   4.534   6.202   0.898 -0.6487  0.5260  1.8938
 9536SOL    HW230050   4.482   6.324   0.825  0.9585  0.8188  1.1967
 9537SOL     OW30051   4.070   1.242   1.055  0.4524  0.1018 -0.2676
 9537SOL    HW130052   4.061   1.281   0.967  0.2074 -0.2849 -0.4183
 9537SOL    HW230053   4.060   1.148   1.040 -1.6112  0.1631  0.4162
 9538SOL     OW30054   1.173   2.555   9.924  0.0566  0.1496 -0.3020
 9538SOL    HW130055   1.161   2.544   9.829  0.1955 -0.2302 -0.2766
 9538SOL    HW230056   1.144   2.645   9.941 -1.4795 -0.2916 -0.4429
 9539SOL     OW30057   0.964   1.993   9.127 -0.1817  0.2808  0.2277
 9539SOL    HW130058   1.012   2.069   9.095  0.5145  0.8765  2.4887
 9539SOL    HW230059   1.029   1.922   9.126 -0.4433  0.0509 -0.6030
 9540SOL     OW30060   7.610   4.988   5.097  0.0275 -0.1699  0.4155
 9540SOL    HW130061   7.606   4.892   5.102 -1.6103 -0.2459 -1.2179
 9540SOL    HW230062   7.660   5.014   5.175  1.5275 -2.3907  0.2951
 9541SOL     OW30063   3.167   3.216  11.410  0.1107 -0.1730 -0.3075
 9541SOL    HW130064   3.202   3.187  11.494 -0.6111  0.3981  0.2114
 9541SOL    HW230065   3.240   3.209  11.348  0.5595 -0.8980  0.3008
 9542SOL     OW30066   0.255   6.623   1.177 -0.3089 -0.0109  0.5630
 9542SOL    HW130067   0.298   6.537   1.178  0.5475  0.4040  0.6157
 9542SOL    HW230068   0.163   6.604   1.161 -0.3436 -1.0362  1.8043
 9543SOL     OW30069   4.130   2.136   5.566  0.5171 -0.3141  0.2760
 9543SOL    HW130070   4.076   2.214   5.559  0.1094 -0.4021  2.0124
 9543SOL    HW230071   4.172   2.128   5.481  0.7281  1.9086  0.1158
 9544SOL     OW30072   0.266   6.249  11.296 -0.0864 -0.2724  0.1001
 9544SOL    HW130073   0.213   6.263  11.218  0.7973 -2.2623 -0.9391
 9544SOL    HW230074   0.328   6.322  11.296 -0.0473 -0.2831 -1.1259
 9545SOL     OW30075   2.185   6.207   6.649 -1.0617 -0.2112  0.1653
 9545SOL    HW130076   2.155   6.172   6.565 -1.2790  0.3717 -0.0045
 9545SOL    HW230077   2.123   6.171   6.713 -0.8265 -0.7479  0.0969
 9546SOL     OW30078   2.394   5.544   9.025  0.3802 -0.4081  0.3934
 9546SOL    HW130079   2.441   5.506   8.950  1.8137  0.9163  0.5861
 9546SOL    HW230080   2.454   5.535   9.098  0.4629  1.5361  0.5977
 9547SOL     OW30081   7.085   4.084   0.772 -0.0887 -0.3669  0.3978
 9547SOL    HW130082   7.112   4.025   0.701  0.6157 -0.8847  1.0804
 9547SOL    HW230083   7.154   4.076   0.837 -1.6243 -1.3108  1.9771
 9548SOL     OW30084   6.510   7.760  10.285  0.4889 -0.7427  0.0165
 9548SOL    HW130085   6.599   7.728  10.268  0.4045  0.2265 -2.7141
 9548SOL    HW230086   6.454   7.705  10.229 -0.1920  0.9170 -1.0014
 9549SOL     OW30087   5.298   1.055  12.417 -0.1727 -0.2205  0.2878
 9549SOL    HW130088   5.319   0.973  12.461  1.6127  0.5742  1.0636
 9549SOL    HW230089   5.334   1.122  12.475 -2.6393  1.2067  0.2906
 9550SOL     OW30090   6.336   5.277   7.865  0.2133 -0.3894 -0.1791
 9550SOL    HW130091   6.257   5.227   7.884  0.7515 -0.8656  0.9208
 9550SOL    HW230092   6.380   5.227   7.797  0.1662 -0.7749  0.0741
 9551SOL     OW30093   2.284   7.445   8.945 -0.3030  0.0246 -0.0457
 9551SOL    HW130094   2.234   7.376   8.901 -0.8443  1.4401 -1.7704
 9551SOL    HW230095   2.286   7.517   8.882  0.7520  1.3811  1.4559
 9552SOL     OW30096   3.366   7.648  11.622 -0.1604 -0.4891  0.1877
 9552SOL    HW130097   3.307   7.584  11.581  1.0321 -0.9928 -0.8030
 9552SOL    HW230098   3.329   7.733  11.598 -2.0156 -0.7298  1.8825
 9553SOL     OW30099   6.532   0.310   6.766 -0.5294 -0.0169 -0.4633
 9553SOL    HW130100   6.556   0.394   6.727 -1.1310  0.2188 -0.3283
 9553SOL    HW230101   6.450   0.327   6.812 -2.0284 -1.2426 -2.5341
 9554SOL     OW30102   7.228   5.225   2.365  0.0626 -0.3250 -0.0343
 9554SOL    HW130103   7.305   5.245   2.418 -0.6857  0.4558  0.7845
 9554SOL    HW230104   7.264   5.188   2.284  1.3244  0.5059  0.1116
 9555SOL     OW30105   3.389   0.295   2.964 -0.1004 -0.7139  0.2893
 9555SOL    HW130106   3.305   0.289   3.010 -0.5969 -1.7766 -0.7250
 9555SOL    HW230107   3.370   0.270   2.874  1.7034 -3.3562  0.5358
 9556SOL     OW30108   4.740   4.082   8.321 -0.2347 -0.7651  0.0772
 9556SOL    HW130109   4.693   4.139   8.383 -0.5718 -0.5731 -0.3532
 9556SOL    HW230110   4.673   4.052   8.260  0.2137 -0.3923 -0.6144
 9557SOL     OW30111   2.717   7.321  11.799 -0.2786  0.6121  0.2048
 9557SOL    HW130112   2.689   7.357  11.715 -1.6929  0.5939  0.6505
 9557SOL    HW230113   2.706   7.394  11.860 -0.4662  0.2456  0.6072
 9558SOL     OW30114   6.665   4.996   9.026 -0.0928 -0.2409 -0.3445
 9558SOL    HW130115   6.577   5.023   9.050  0.4350  2.1820 -0.8049
 9558SOL    HW230116   6.718   5.075   9.036  1.7414 -1.2372 -1.5023
 9559SOL     OW30117   3.332   3.569   4.404  0.1636  0.3858 -0.8315
 9559SOL    HW130118   3.423   3.585   4.428  0.2207  2.0414 -2.0175
 9559SOL    HW230119   3.311   3.637   4.340 -1.8894 -0.0046 -0.6526
 9560SOL     OW30120   7.776   4.395   2.608  0.1016  0.0876 -0.2575
 9560SOL    HW130121   7.694   4.444   2.605 -0.3936 -0.6559  0.4836
 9560SOL    HW230122   7.761   4.320   2.550 -0.2409 -0.7385  0.8513
 9561SOL     OW30123   3.212   0.079   4.294  0.2348  0.0398 -0.0208
 9561SOL    HW130124   3.156   0.098   4.218  0.8506  1.9395 -0.0455
 9561SOL    HW230125   3.185   0.143   4.360  1.4775  0.1323  0.4253
 9562SOL     OW30126   7.778   6.462  11.752  0.1250 -0.3064 -0.0100
 9562SOL    HW130127   7.764   6.368  11.735  1.6881 -0.4497 -0.6643
 9562SOL    HW230128   7.731   6.506  11.681  0.4144 -0.6456 -0.4158
 9563SOL     OW30129   0.408   7.884   7.122  0.3608  0.0528  0.0613
 9563SOL    HW130130   0.361   7.891   7.205 -1.2701 -0.1124 -0.7928
 9563SOL    HW230131   0.456   7.967   7.115 -1.1639  1.0015  0.2336
 9564SOL     OW30132   6.585   4.387   0.257 -0.2502 -0.5986 -0.1589
 9564SOL    HW130133   6.663   4.354   0.213 -0.1952  1.4358 -1.7332
 9564SOL    HW230134   6.620   4.446   0.325 -0.4027 -1.1526  0.4088
 9565SOL     OW30135   2.118   6.728  11.771  0.3207  0.2594  0.4540
 9565SOL    HW130136   2.204   6.713  11.731  0.0846 -1.0817  0.3878
 9565SOL    HW230137   2.107   6.823  11.771  2.0087  0.4748  0.9182
 9566SOL     OW30138   4.322   2.966   2.919  0.6769  0.0511  0.3435
 9566SOL    HW130139   4.288   3.055   2.921  2.0284  0.6086 -0.4347
 9566SOL    HW230140   4.259   2.915   2.971 -0.2572  1.3904  0.5694
 9567SOL     OW30141   1.654   0.476   1.208 -0.0119  0.4553  0.0201
 9567SOL    HW130142   1.583   0.536   1.185  0.0964  0.9552  0.9317
 9567SOL    HW230143   1.647   0.405   1.144 -0.9121  0.8302 -0.3198
 9568SOL     OW30144   6.205   2.677   6.048  0.1103  0.2332 -0.1032
 9568SOL    HW130145   6.218   2.734   5.972  0.8254 -1.1168 -1.0360
 9568SOL    HW230146   6.272   2.610   6.040  0.1974  0.0468  1.7498
 9569SOL     OW30147   0.278   7.962   7.345  0.4259  0.2011  0.1156
 9569SOL    HW130148   0.209   7.946   7.409  2.6739  2.2260  3.3090
 9569SOL    HW230149   0.273   8.056   7.328  0.4227 -0.1471 -2.1948
 9570SOL     OW30150   7.490   0.331   5.313 -0.3386  0.0942  0.4186
 9570SOL    HW130151   7.545   0.317   5.390  1.7522  0.4811 -0.9305
 9570SOL    HW230152   7.452   0.417   5.326  0.6989  0.5331  0.6363
 9571SOL     OW30153   5.567   6.765   1.726  0.0964  0.2825 -0.9232
 9571SOL    HW130154   5.563   6.743   1.819  0.4593  2.5364 -0.3328
 9571SOL    HW230155   5.661   6.763   1.705  0.3410  2.8025 -0.3894
 9572SOL     OW30156   2.390   7.033   2.110  0.4547 -0.3122 -0.3993
 9572SOL    HW130157   2.349   7.120   2.108  0.9078 -0.0617  0.6398
 9572SOL    HW230158   2.369   6.999   2.197  2.9736  0.1108  0.4636
 9573SOL     OW30159   2.021   6.876   9.243 -0.0266 -0.6205  0.5936
 9573SOL    HW130160   2.064   6.791   9.247 -1.1607 -1.1793  1.9613
 9573SOL    HW230161   1.928   6.856   9.252 -0.3840  0.7199  0.1323
 9574SOL     OW30162   6.679   7.827  10.963  0.2868  0.7559  0.2814
 9574SOL    HW130163   6.706   7.898  11.021 -0.2139 -0.0847  1.5839
 9574SOL    HW230164   6.741   7.756  10.980  0.5831  0.7359 -0.7650
 9575SOL     OW30165   0.605   3.380   9.301 -0.4360 -0.5056  0.2574
 9575SOL    HW130166   0.517   3.345   9.313 -0.1871 -1.6264 -0.9845
 9575SOL    HW230167   0.621   3.376   9.207  0.8426 -0.0683  0.4242
 9576SOL     OW30168   0.781   1.948  10.258 -0.0335  0.1584 -0.1413
 9576SOL    HW130169   0.849   2.012  10.239  0.7097 -0.8292 -0.8880
 9576SOL    HW230170   0.783   1.887  10.184 -1.8646  0.2086 -0.2844
 9577SOL     OW30171   7.734   6.996  11.214  0.2912 -0.1366  0.1395
 9577SOL    HW130172   7.719   6.907  11.182 -0.3334 -0.4645  1.2672
 9577SOL    HW230173   7.678   7.050  11.159  2.5605 -0.0486 -2.2639
 9578SOL     OW30174   2.393   3.100   8.366 -0.0198  0.7462 -0.1751
 9578SOL    HW130175   2.318   3.059   8.323  0.9797 -0.2145 -1.0989
 9578SOL    HW230176   2.410   3.045   8.443  0.8133 -0.1659 -0.9653
 9579SOL     OW30177   4.296   7.798   6.526  0.1112 -0.4052  0.4528
 9579SOL    HW130178   4.290   7.709   6.562  0.9923 -0.1011  1.4175
 9579SOL    HW230179   4.389   7.810   6.507 -0.2828 -0.4389 -1.7356
 9580SOL     OW30180   5.165   0.015   3.022  0.0880 -0.0359  0.6402
 9580SOL    HW130181   5.197  -0.067   2.986 -0.7771 -0.2504  0.3319
 9580SOL    HW230182   5.241   0.072   3.023  0.3903 -0.3901 -0.4685
 9581SOL     OW30183   3.007   5.829   8.802  0.3942 -0.1426  0.4099
 9581SOL    HW130184   2.963   5.908   8.831  1.6669  0.3703  1.0023
 9581SOL    HW230185   3.033   5.847   8.712  0.2437 -0.0868  0.3780
 9582SOL     OW30186   1.711   5.806  12.119  0.0054 -0.2270 -0.5412
 9582SOL    HW130187   1.707   5.781  12.212 -0.7913 -0.8719 -0.7355
 9582SOL    HW230188   1.736   5.725  12.074 -1.4780 -0.4167 -1.0754
 9583SOL     OW30189   0.813   0.996  11.113  0.2796  0.4151  0.3157
 9583SOL    HW130190   0.825   1.091  11.112 -2.2365  0.7874 -0.0274
 9583SOL    HW230191   0.778   0.977  11.200 -0.3037 -0.0132 -0.0012
 9584SOL     OW30192   4.570   5.557   2.631 -0.3976 -0.0343  0.0975
 9584SOL    HW130193   4.542   5.627   2.571  0.4690 -0.5130 -0.8985
 9584SOL    HW230194   4.509   5.563   2.705 -1.1655  0.9157 -0.5841
 9585SOL     OW30195   7.211   3.112   2.837  0.0853  0.1909 -0.0987
 9585SOL    HW130196   7.277   3.043   2.828  0.7904  1.0500 -2.2247
 9585SOL    HW230197   7.128   3.067   2.831  0.5182 -0.6333  0.0020
 9586SOL     OW30198   4.259   2.414   9.780 -0.1257 -0.1177 -0.3635
 9586SOL    HW130199   4.193   2.445   9.719 -1.5888 -1.2884  0.5355
 9586SOL    HW230200   4.212   2.352   9.836  2.1602 -2.5454 -0.9278
 9587SOL     OW30201   4.424   5.154   5.999 -0.3258 -0.3418 -0.0899
 9587SOL    HW130202   4.428   5.060   6.019 -0.2420 -0.3810 -0.2854
 9587SOL    HW230203   4.425   5.158   5.904  0.4930 -0.1085 -0.0786
 9588SOL     OW30204   7.547   5.043   7.535  0.0464 -0.2514 -0.5464
 9588SOL    HW130205   7.528   5.117   7.478 -0.9862  0.2191  0.3671
 9588SOL    HW230206   7.504   4.969   7.491 -2.8033  0.5158  0.6726
 9589SOL     OW30207   7.517   5.554  10.582  0.0637 -0.7623 -0.1546
 9589SOL    HW130208   7.477   5.610  10.515  1.0452 -0.2661 -0.3476
 9589SOL    HW230209   7.553   5.481  10.533  1.2686 -0.1221 -0.2550
 9590SOL     OW30210   5.553   3.298   4.851  0.1782  0.1361  0.7560
 9590SOL    HW130211   5.606   3.333   4.923  2.5461  0.9095 -1.2096
 9590SOL    HW230212   5.617   3.257   4.793 -1.5717  0.0366 -1.2043
 9591SOL     OW30213   4.601   4.949   0.773 -0.5093  0.1326 -0.4199
 9591SOL    HW130214   4.526   4.955   0.715 -0.6620  0.2490 -0.2089
 9591SOL    HW230215   4.669   4.906   0.720 -1.2058 -1.3806 -0.1332
 9592SOL     OW30216   0.953   5.488   9.257 -0.6081 -0.1896  0.0511
 9592SOL    HW130217   0.863   5.472   9.285 -0.8831 -0.5435 -0.9636
 9592SOL    HW230218   0.976   5.409   9.207  0.2152 -0.0419  0.1892
 9593SOL     OW30219   7.096   1.039   6.433  0.4321  0.0263  0.0701
 9593SOL    HW130220   7.146   0.979   6.378 -1.8334 -0.6459 -1.3829
 9593SOL    HW230221   7.007   1.034   6.399 -0.7782  0.7339  2.8817
 9594SOL     OW30222   5.260   2.467   5.096 -0.1249 -0.2186  0.3820
 9594SOL    HW130223   5.213   2.514   5.166  1.1736  0.6181  0.7395
 9594SOL    HW230224   5.228   2.507   5.015  0.7557  1.1376  0.6713
 9595SOL     OW30225   1.939   7.152   4.780 -0.2491  0.4482 -0.2470
 9595SOL    HW130226   1.947   7.233   4.832  0.4809  0.1771  0.0808
 9595SOL    HW230227   2.024   7.144   4.736 -0.1449 -0.3966  0.1004
 9596SOL     OW30228   5.021   2.796   0.188 -0.2500  0.7390  0.0660
 9596SOL    HW130229   5.019   2.844   0.271 -3.0208 -2.2240  1.9613
 9596SOL    HW230230   5.075   2.719   0.206 -1.5006 -0.3275 -0.5662
 9597SOL     OW30231   2.612   7.394   3.407  0.5834 -0.0939 -0.1101
 9597SOL    HW130232   2.707   7.403   3.403  0.5687 -0.0213 -0.2908
 9597SOL    HW230233   2.591   7.327   3.343  0.4622  0.2710 -0.4574
 9598SOL     OW30234   0.292   2.945   7.048  0.2453 -0.4738  0.1158
 9598SOL    HW130235   0.320   2.869   6.997 -1.1666 -0.3797 -0.8571
 9598SOL    HW230236   0.221   2.912   7.103  0.6408 -0.1851  0.8095
 9599SOL     OW30237   4.083   1.868   5.524  0.3546  0.2364  0.0753
 9599SOL    HW130238   4.108   1.954   5.557  2.7914  0.0157 -1.0219
 9599SOL    HW230239   4.138   1.854   5.447 -0.8551 -1.8078 -0.5132
 9600SOL     OW30240   7.544   0.328   1.632 -0.0410  0.4099  0.6141
 9600SOL    HW130241   7.516   0.344   1.722 -0.5079  2.8435  0.1070
 9600SOL    HW230242   7.578   0.413   1.602 -0.3792 -0.1874 -1.6695
 9601SOL     OW30243   3.404   1.145   8.292  0.2904 -0.0716 -0.0911
 9601SOL    HW130244   3.395   1.131   8.386  0.7652  0.2309  0.0019
 9601SOL    HW230245   3.433   1.236   8.284  0.6958 -0.2359 -0.5045
 9602SOL     OW30246   0.691   3.580   2.178 -0.3365 -0.2590 -0.7136
 9602SOL    HW130247   0.652   3.595   2.264 -0.1056 -0.1577 -0.6237
 9602SOL    HW230248   0.706   3.486   2.174 -0.5687 -0.2939 -0.7388
 9603SOL     OW30249   7.709   3.048  11.737 -0.0579 -0.0737 -0.7663
 9603SOL    HW130250   7.651   2.975  11.757  0.5236 -0.1838  0.6153
 9603SOL    HW230251   7.718   3.095  11.819  0.1551  1.1471 -1.4660
 9604SOL     OW30252   3.744   5.891   6.926 -0.2341 -0.1210  0.2949
 9604SOL    HW130253   3.735   5.984   6.948  0.3642 -0.2927  1.3408
 9604SOL    HW230254   3.835   5.871   6.946 -0.5468 -1.1059  0.7837
 9605SOL     OW30255   3.905   4.050  10.846 -0.0953 -0.2163 -0.0608
 9605SOL    HW130256   3.942   4.138  10.855 -0.8163  0.0524  0.3722
 9605SOL    HW230257   3.978   3.996  10.815  0.3046  0.5715 -0.5190
 9606SOL     OW30258   3.730   0.285   8.783 -0.5921  0.0614  0.5847
 9606SOL    HW130259   3.727   0.340   8.861  0.2316  0.6773  0.1919
 9606SOL    HW230260   3.642   0.247   8.777 -1.7453  2.6411 -0.0854
 9607SOL     OW30261   6.897   1.606  12.346 -0.1111  0.1311  0.1642
 9607SOL    HW130262   6.904   1.694  12.383 -0.2762  0.8343 -1.4043
 9607SOL    HW230263   6.904   1.619  12.251 -0.1815 -1.5438 -0.1026
 9608SOL     OW30264   4.402   7.108   5.006  0.0494  0.1768  0.5327
 9608SOL    HW130265   4.459   7.166   4.955 -1.0147  0.8620  0.0849
 9608SOL    HW230266   4.426   7.020   4.978  0.3427  0.4895 -0.2168
 9609SOL     OW30267   4.341   5.593   8.888 -0.6912  0.4406  0.1076
 9609SOL    HW130268   4.343   5.550   8.973 -0.8165  0.5092  0.1460
 9609SOL    HW230269   4.303   5.528   8.829 -1.8462  0.8567  0.3691
 9610SOL     OW30270   5.988   5.195  10.299  0.1174 -0.3912 -0.0824
 9610SOL    HW130271   5.975   5.290  10.295 -1.0918 -0.5033  0.8319
 9610SOL    HW230272   6.035   5.181  10.381  0.0634 -0.6193 -0.0910
 9611SOL     OW30273   7.555   0.489  12.126  0.3646  0.1833 -0.0807
 9611SOL    HW130274   7.632   0.439  12.154  0.8145  1.1821  0.5470
 9611SOL    HW230275   7.495   0.485  12.201  1.2779  2.2746  0.8483
 9612SOL     OW30276   6.479   5.128   9.315  0.8797 -0.2614  0.4848
 9612SOL    HW130277   6.476   5.159   9.224 -1.4991  1.5911  1.0629
 9612SOL    HW230278   6.398   5.078   9.326  0.3742  0.7743  1.8949
 9613SOL     OW30279   6.419   7.482   7.385 -0.2162 -0.2093 -0.4934
 9613SOL    HW130280   6.488   7.539   7.418 -0.8914  0.1419  0.3665
 9613SOL    HW230281   6.454   7.394   7.395  1.0746  0.0434 -2.3981
 9614SOL     OW30282   5.251   3.905   7.267 -0.1665  0.2375 -0.5970
 9614SOL    HW130283   5.313   3.839   7.236 -1.2264 -0.7277 -0.7225
 9614SOL    HW230284   5.304   3.966   7.318  0.6623 -1.3575  0.5290
 9615SOL     OW30285   7.772   1.280   0.015  0.3919 -0.0858  0.0531
 9615SOL    HW130286   7.764   1.205  -0.044  0.1397  0.7628 -1.0261
 9615SOL    HW230287   7.776   1.356  -0.043 -0.0184  0.7945  1.1371
 9616SOL     OW30288   6.776   1.392   0.075  0.1612 -0.4242  0.1688
 9616SOL    HW130289   6.817   1.380   0.161  1.4608 -0.2272 -0.3969
 9616SOL    HW230290   6.819   1.469   0.039  0.0705 -0.8600 -0.9117
 9617SOL     OW30291   7.127   6.901   3.600 -0.1876  0.4724  0.4792
 9617SOL    HW130292   7.165   6.917   3.514 -0.2565 -0.9146  0.1761
 9617SOL    HW230293   7.176   6.958   3.659  0.0363  1.2405 -0.4324
 9618SOL     OW30294   4.867   6.705   4.943 -0.1724 -0.1123  0.0097
 9618SOL    HW130295   4.843   6.701   4.850 -1.5426  0.0877  0.3332
 9618SOL    HW230296   4.865   6.614   4.971  0.6805 -0.2214 -0.2413
 9619SOL     OW30297   0.547   5.282   3.581  0.9084  0.9614  0.1430
 9619SOL    HW130298   0.576   5.325   3.662 -0.1063  1.4641  0.2504
 9619SOL    HW230299   0.515   5.354   3.527 -0.7711  0.3649  0.3034
 9620SOL     OW30300   2.709   2.902  12.151 -0.2862  0.0159  0.7294
 9620SOL    HW130301   2.752   2.938  12.073  1.3368  0.6494  1.8486
 9620SOL    HW230302   2.763   2.827  12.175 -0.9747 -0.3877  1.0399
 9621SOL     OW30303   3.079   0.469   3.077  0.8839 -0.1531 -0.1159
 9621SOL    HW130304   3.059   0.531   3.006  3.2089 -0.5395 -1.1845
 9621SOL    HW230305   3.150   0.511   3.126  1.8992 -1.5526 -0.3398
 9622SOL     OW30306   5.091   1.642   6.750  0.2926 -0.6288  0.3915
 9622SOL    HW130307   5.015   1.643   6.808 -0.5555 -2.5941 -0.5922
 9622SOL    HW230308   5.106   1.734   6.729 -1.7912 -0.1646  0.6780
 9623SOL     OW30309   1.304   4.803   6.687  0.1670  0.1983 -0.2211
 9623SOL    HW130310   1.394   4.775   6.702  0.4510  1.5977  0.9222
 9623SOL    HW230311   1.278   4.845   6.769 -0.5661  2.2716 -1.4424
 9624SOL     OW30312   1.371   5.888   0.319 -0.1712 -0.0827  0.8232
 9624SOL    HW130313   1.284   5.849   0.323 -1.1191  1.6286 -1.1197
 9624SOL    HW230314   1.360   5.965   0.264  2.4794  0.5178  1.0021
 9625SOL     OW30315   0.396   7.474   1.737  0.0672 -0.2553 -0.4504
 9625SOL    HW130316   0.333   7.460   1.808  0.1067  0.8950 -0.1645
 9625SOL    HW230317   0.456   7.541   1.771 -0.4837  1.0360 -1.8978
 9626SOL     OW30318   1.610   7.561  11.811  0.3119  0.1916 -0.0904
 9626SOL    HW130319   1.540   7.527  11.755  0.0788 -1.5817  1.1845
 9626SOL    HW230320   1.673   7.490  11.816  0.9061  0.7691  0.9338
 9627SOL     OW30321   6.939   1.893   0.413 -0.0924 -0.0833 -0.1457
 9627SOL    HW130322   7.027   1.927   0.424  0.3659 -0.2953 -2.5971
 9627SOL    HW230323   6.947   1.824   0.347 -1.8352 -1.3840  0.8774
 9628SOL     OW30324   4.552   7.599   4.678  0.1462 -0.4551  0.0392
 9628SOL    HW130325   4.491   7.659   4.635  0.5642 -0.0463  0.0150
 9628SOL    HW230326   4.556   7.523   4.619  1.0397  0.2771 -0.8750
 9629SOL     OW30327   4.372   6.531   6.977 -0.9466 -0.1924  0.1508
 9629SOL    HW130328   4.280   6.504   6.973 -1.8759  2.7724 -1.7431
 9629SOL    HW230329   4.370   6.619   7.015  0.8047  0.8020 -1.8644
 9630SOL     OW30330   0.338   2.096   9.038  0.6041  0.0217  0.1411
 9630SOL    HW130331   0.370   2.122   8.952 -0.2824  0.6709 -0.0126
 9630SOL    HW230332   0.407   2.123   9.099 -0.3031  3.0278  0.0141
 9631SOL     OW30333   1.933   2.906   0.298 -0.0616  0.2858  0.3172
 9631SOL    HW130334   1.944   2.908   0.393 -1.6756  1.0939  0.5073
 9631SOL    HW230335   2.023   2.902   0.264  0.6931  2.6764  1.7968
 9632SOL     OW30336   3.150   0.457  11.297 -0.7511 -0.8190 -0.3860
 9632SOL    HW130337   3.236   0.454  11.339 -0.7421  1.5964 -0.0638
 9632SOL    HW230338   3.167   0.487  11.208 -1.2765  0.7506 -0.0033
 9633SOL     OW30339   0.487   0.411   9.189 -0.2645 -0.0506 -0.0944
 9633SOL    HW130340   0.428   0.361   9.245 -0.1303  0.5857  0.6237
 9633SOL    HW230341   0.430   0.472   9.142 -0.1512  0.7542  0.8055
 9634SOL     OW30342   2.458   0.593  12.326  0.3574 -0.0479 -0.0921
 9634SOL    HW130343   2.452   0.612  12.419 -0.5298  0.7609 -0.2949
 9634SOL    HW230344   2.513   0.515  12.320 -0.1528 -0.5190  1.1540
 9635SOL     OW30345   3.221   1.028   0.087 -0.2914  0.3482  0.1028
 9635SOL    HW130346   3.145   0.970   0.079  0.2736 -0.4347  0.4095
 9635SOL    HW230347   3.207   1.072   0.171 -0.4708  0.3035  0.0986
 9636SOL     OW30348   0.429   4.853   7.886  0.0194  0.4420 -0.3473
 9636SOL    HW130349   0.386   4.768   7.887 -0.7256  0.7665 -1.9947
 9636SOL    HW230350   0.485   4.851   7.809  1.4918  0.7654  0.6622
 9637SOL     OW30351   2.334   0.057   3.076  0.0046  0.1652  0.2182
 9637SOL    HW130352   2.409   0.088   3.026  0.6942 -0.3445  0.9126
 9637SOL    HW230353   2.323   0.122   3.146  0.0408  0.0344  0.3457
 9638SOL     OW30354   6.638   1.664  10.146  0.7069  0.2527  0.0811
 9638SOL    HW130355   6.713   1.722  10.137  1.4555 -0.7280 -0.2217
 9638SOL    HW230356   6.617   1.636  10.057 -0.6008  1.1884  0.0558
 9639SOL     OW30357   1.303   5.603   4.566 -0.2509  0.0891  0.1241
 9639SOL    HW130358   1.300   5.645   4.480 -2.0047 -0.6319 -0.2244
 9639SOL    HW230359   1.314   5.510   4.547  1.3691  0.1197  0.7901
 9640SOL     OW30360   5.629   4.811   2.264 -0.1931  0.1484 -0.0136
 9640SOL    HW130361   5.594   4.773   2.345 -0.4399  0.9003  0.2400
 9640SOL    HW230362   5.678   4.888   2.293  0.7054 -0.2390 -0.4791
 9641SOL     OW30363   4.866   2.638   4.778 -0.0829 -0.1978  0.3986
 9641SOL    HW130364   4.785   2.628   4.728  0.8359  0.1950 -1.2294
 9641SOL    HW230365   4.895   2.548   4.794 -0.7221 -0.3359  0.8072
 9642SOL     OW30366   7.850   3.450   4.003 -0.3165 -0.0637  0.2247
 9642SOL    HW130367   7.859   3.369   4.053  0.0297 -0.2525 -0.1379
 9642SOL    HW230368   7.756   3.463   3.994 -0.3747 -0.2285  0.6038
 9643SOL     OW30369   2.201   1.518   4.204  0.1613  0.1271  0.3562
 9643SOL    HW130370   2.263   1.482   4.267  0.5615  0.4245  0.1354
 9643SOL    HW230371   2.128   1.455   4.203  0.2460  0.0140  0.9563
 9644SOL     OW30372   1.129   2.232   0.601  0.1648 -0.4105  0.1864
 9644SOL    HW130373   1.074   2.205   0.675 -1.3975 -1.1757 -1.2016
 9644SOL    HW230374   1.095   2.183   0.527  1.2385  0.8710 -1.2051
 9645SOL     OW30375   2.984   1.536  11.286 -0.0881 -0.4006 -0.6891
 9645SOL    HW130376   2.989   1.515  11.192 -3.2161 -0.3093 -0.9751
 9645SOL    HW230377   2.974   1.631  11.289  0.6591 -0.3317 -0.2041
 9646SOL     OW30378   1.542   7.025   8.721 -0.0146 -0.0174  0.3982
 9646SOL    HW130379   1.581   6.938   8.715  1.6603  0.7616 -0.7349
 9646SOL    HW230380   1.457   7.016   8.678  0.2274 -1.0262  0.1061
 9647SOL     OW30381   4.677   1.461   1.222 -0.3851  0.0806  0.1779
 9647SOL    HW130382   4.604   1.496   1.171 -0.0826 -0.0117 -0.3174
 9647SOL    HW230383   4.668   1.504   1.307 -1.3344 -0.3370  0.3048
 9648SOL     OW30384   4.601   1.256   8.169  0.1803 -0.8586 -0.0957
 9648SOL    HW130385   4.587   1.339   8.124 -1.1379  0.6542  2.7942
 9648SOL    HW230386   4.514   1.216   8.175  0.3103 -1.0256  0.9768
 9649SOL     OW30387   4.393   5.501   3.597  0.0019 -0.4521 -0.6580
 9649SOL    HW130388   4.482   5.510   3.630 -0.4576 -0.5100  0.6629
 9649SOL    HW230389   4.389   5.560   3.522  0.6942  0.8113  0.2591
 9650SOL     OW30390   7.843   0.797   7.698  0.5798 -0.1174 -0.1547
 9650SOL    HW130391   7.812   0.707   7.711  0.4803  0.0479  0.8799
 9650SOL    HW230392   7.846   0.808   7.603 -4.1997  0.4204 -0.4698
 9651SOL     OW30393   5.884   0.731  10.360  0.1661 -0.0025 -0.2675
 9651SOL    HW130394   5.865   0.665  10.293  1.4322 -2.2027  1.4144
 9651SOL    HW230395   5.824   0.711  10.432  0.0978  1.1408  0.0103
 9652SOL     OW30396   5.699   7.103  11.312  0.3127  0.1545 -0.2058
 9652SOL    HW130397   5.684   7.196  11.293  0.6315  0.7768  2.1735
 9652SOL    HW230398   5.779   7.103  11.366 -0.3997 -1.3463  0.9236
 9653SOL     OW30399   3.368   3.675   2.304  0.1949 -0.5173  0.2876
 9653SOL    HW130400   3.393   3.591   2.266  0.8025  0.1712 -0.8899
 9653SOL    HW230401   3.379   3.663   2.399  1.2404 -1.4474  0.0649
 9654SOL     OW30402   5.252   0.794   9.358 -0.4483  0.2963 -0.0447
 9654SOL    HW130403   5.217   0.836   9.436 -1.4413 -0.7377  0.1001
 9654SOL    HW230404   5.214   0.706   9.359  1.3815 -0.5539 -0.4299
 9655SOL     OW30405   3.163   5.525   3.791  0.3345  0.3484  0.6361
 9655SOL    HW130406   3.088   5.485   3.746  1.0115 -1.9196  1.4164
 9655SOL    HW230407   3.145   5.619   3.787 -1.3278  0.0288 -1.3314
 9656SOL     OW30408   0.974   4.929   2.249 -0.0621  0.3182  0.1789
 9656SOL    HW130409   0.949   4.837   2.247 -0.1226  0.2885  1.6539
 9656SOL    HW230410   0.893   4.976   2.228 -0.2956  0.0718  0.5218
 9657SOL     OW30411   2.214   7.409   2.670 -0.2456  0.1042  0.1757
 9657SOL    HW130412   2.250   7.498   2.668  1.7674 -0.6440  0.6696
 9657SOL    HW230413   2.143   7.410   2.606  0.6060  1.7150 -0.8058
 9658SOL     OW30414   0.044   4.539   1.649  0.6995 -0.3240 -0.6775
 9658SOL    HW130415   0.065   4.626   1.683 -1.3328 -0.3216  0.7257
 9658SOL    HW230416  -0.006   4.555   1.570  0.0496 -0.1803 -0.2473
 9659SOL     OW30417   5.835   4.222   5.758 -0.0639  0.0118  0.6290
 9659SOL    HW130418   5.860   4.184   5.674 -0.3636 -1.1596  1.0463
 9659SOL    HW230419   5.918   4.238   5.803  0.1306  1.2879 -0.1379
 9660SOL     OW30420   4.156   5.812   2.854 -0.2528  0.6715 -0.4158
 9660SOL    HW130421   4.115   5.729   2.830 -0.6311 -0.1351  2.5891
 9660SOL    HW230422   4.088   5.878   2.835 -0.9885 -0.0397 -0.3238
 9661SOL     OW30423   0.672   2.846   7.102  0.1980 -0.1339 -0.5272
 9661SOL    HW130424   0.615   2.777   7.069  1.2082  0.1669 -3.1427
 9661SOL    HW230425   0.742   2.800   7.148 -0.4315 -0.6718 -0.0944
 9662SOL     OW30426   4.480   0.832   3.293  0.3545 -0.3323 -0.1209
 9662SOL    HW130427   4.510   0.811   3.381 -1.2804 -0.4733  0.4264
 9662SOL    HW230428   4.431   0.913   3.303 -1.4213 -1.3170 -0.5501
 9663SOL     OW30429   2.843   6.068   1.725  0.2547 -0.8746 -0.0736
 9663SOL    HW130430   2.778   6.017   1.676 -0.2747  0.8106 -1.2337
 9663SOL    HW230431   2.873   6.134   1.662  0.7701  0.3505  1.4072
 9664SOL     OW30432   1.554   1.626   4.123 -0.2470  0.7493  1.4185
 9664SOL    HW130433   1.550   1.569   4.046 -0.3646  1.0454  1.2039
 9664SOL    HW230434   1.468   1.618   4.164 -0.4614  1.2041  1.0718
 9665SOL     OW30435   7.144   1.989   3.663 -0.0487  0.2898 -0.8909
 9665SOL    HW130436   7.129   2.043   3.741 -0.2137 -0.0839 -0.6582
 9665SOL    HW230437   7.154   1.900   3.698 -0.7804  0.0176 -1.3464
 9666SOL     OW30438   0.073   4.699   4.708  0.1579  0.4521  0.5248
 9666SOL    HW130439   0.134   4.684   4.635 -1.0419 -0.0900 -0.4070
 9666SOL    HW230440   0.122   4.754   4.769  1.9603 -0.8600  0.3449
 9667SOL     OW30441   7.596   6.290   3.076 -0.0762 -0.5258  0.2984
 9667SOL    HW130442   7.526   6.257   3.019 -0.4611  0.4790  0.1779
 9667SOL    HW230443   7.662   6.324   3.016 -1.0137  1.6484  0.4033
 9668SOL     OW30444   5.933   2.407   6.495 -0.1869 -0.0084 -0.6327
 9668SOL    HW130445   5.916   2.437   6.406 -1.4656 -1.6197 -0.9939
 9668SOL    HW230446   5.979   2.323   6.484  3.6987  1.7851  0.3350
 9669SOL     OW30447   7.312   1.335   8.549  0.2512 -0.0507 -0.3544
 9669SOL    HW130448   7.263   1.362   8.627  1.7166 -0.7240  0.8456
 9669SOL    HW230449   7.259   1.367   8.476 -0.7472  1.3302  0.9078
 9670SOL     OW30450   1.446   1.959   9.788 -0.4362 -0.3465  0.1314
 9670SOL    HW130451   1.426   1.919   9.873  0.6432 -0.3353  0.4092
 9670SOL    HW230452   1.490   2.041   9.811  0.2321 -0.5382 -0.4282
 9671SOL     OW30453   1.355   6.283   2.361 -0.4866  0.8618  0.3276
 9671SOL    HW130454   1.382   6.327   2.441 -0.7307  0.3601  0.6923
 9671SOL    HW230455   1.426   6.298   2.299 -0.4200  1.4765  0.5561
 9672SOL     OW30456   7.569   3.073  10.310 -0.4966  0.4092 -0.1501
 9672SOL    HW130457   7.526   3.145  10.355 -0.6328 -1.2365  2.5800
 9672SOL    HW230458   7.502   3.038  10.250 -1.4818  0.6294  0.7928
 9673SOL     OW30459   7.122   0.909   4.806 -0.2941 -0.7250  0.1128
 9673SOL    HW130460   7.196   0.942   4.756  1.2744 -0.6244  2.3709
 9673SOL    HW230461   7.105   0.822   4.770 -0.1836 -0.1033 -1.5140
 9674SOL     OW30462   5.746   6.784   2.821  0.6361  0.4985  0.1252
 9674SOL    HW130463   5.800   6.806   2.744  0.0208  0.3206 -0.3633
 9674SOL    HW230464   5.771   6.849   2.887 -0.4220  2.0789 -0.9550
 9675SOL     OW30465   2.904   4.447   2.473 -0.0517  0.1954  0.1967
 9675SOL    HW130466   2.981   4.399   2.505 -0.4565 -0.0007  0.9050
 9675SOL    HW230467   2.835   4.425   2.535 -0.4569  1.0760  0.0737
 9676SOL     OW30468   5.182   0.190   7.536 -0.5465 -0.0257  0.2893
 9676SOL    HW130469   5.116   0.208   7.603 -0.4980  2.5285 -0.2611
 9676SOL    HW230470   5.137   0.208   7.453  0.8873  2.2348 -0.0722
 9677SOL     OW30471   5.129   4.518   0.546 -0.1588 -0.0455 -0.0963
 9677SOL    HW130472   5.188   4.564   0.606 -0.1605 -0.1218 -0.0354
 9677SOL    HW230473   5.044   4.517   0.591 -0.4626  0.9593 -0.6255
 9678SOL     OW30474   0.404   3.660   7.550  0.2963 -0.4758 -0.3922
 9678SOL    HW130475   0.332   3.713   7.517  1.6574  1.6689 -0.0845
 9678SOL    HW230476   0.441   3.620   7.471  1.6613  2.2433 -1.2685
 9679SOL     OW30477   7.533   0.722   6.862  0.6342  0.6929 -0.1579
 9679SOL    HW130478   7.596   0.662   6.903 -0.4554 -1.7040 -1.7688
 9679SOL    HW230479   7.577   0.752   6.783 -0.4863 -1.8428 -1.8681
 9680SOL     OW30480   7.843   4.588   6.916  0.4950 -0.0549  0.5947
 9680SOL    HW130481   7.807   4.530   6.849  2.2599 -0.8809  0.2954
 9680SOL    HW230482   7.901   4.648   6.869 -2.9864  3.7001  0.5280
 9681SOL     OW30483   7.301   2.585   0.227  0.0032  0.1849 -0.8668
 9681SOL    HW130484   7.395   2.602   0.218  0.1971 -0.2663  0.1859
 9681SOL    HW230485   7.296   2.496   0.262 -0.8010  0.3588 -0.5112
 9682SOL     OW30486   5.438   5.579   4.015 -0.2796 -0.0467 -0.0214
 9682SOL    HW130487   5.456   5.647   3.949  3.4369 -0.8405 -0.0109
 9682SOL    HW230488   5.394   5.510   3.966  2.3456 -0.5930 -1.8147
 9683SOL     OW30489   4.400   7.676   8.970 -0.3079  0.2350 -0.4602
 9683SOL    HW130490   4.448   7.598   8.998  1.6769  1.0430 -1.3930
 9683SOL    HW230491   4.408   7.736   9.044 -2.6588 -0.7146  0.6482
 9684SOL     OW30492   6.509   3.766   5.870 -0.1345  0.1848  0.0160
 9684SOL    HW130493   6.493   3.860   5.867 -2.6709 -0.0626  2.3280
 9684SOL    HW230494   6.584   3.756   5.929 -0.3957  0.7150  0.4410
 9685SOL     OW30495   2.127   0.773  11.672  0.4975 -0.0024 -0.0199
 9685SOL    HW130496   2.067   0.699  11.663 -0.4645  0.5909  1.1540
 9685SOL    HW230497   2.212   0.739  11.645 -0.5533 -0.5031 -3.0866
 9686SOL     OW30498   3.646   0.225   3.959  0.5300 -0.1382  0.1619
 9686SOL    HW130499   3.698   0.223   4.039  1.1052 -2.3512 -0.1950
 9686SOL    HW230500   3.664   0.312   3.921  2.2793 -0.0254  1.1454
 9687SOL     OW30501   2.911   6.482   4.701  0.0105  0.2321 -0.0288
 9687SOL    HW130502   2.951   6.531   4.773 -0.4430  1.0246 -0.2973
 9687SOL    HW230503   2.817   6.503   4.707 -0.1939 -0.6035 -0.1599
 9688SOL     OW30504   3.164   5.155   6.217 -0.5630 -0.3140  0.3129
 9688SOL    HW130505   3.233   5.093   6.193  1.2240  1.2694  1.1027
 9688SOL    HW230506   3.103   5.154   6.143  1.0101 -0.7910 -1.0126
 9689SOL     OW30507   5.715   5.140   6.150 -0.1078  0.1197 -0.3171
 9689SOL    HW130508   5.622   5.163   6.158  0.0025  0.2116  0.9235
 9689SOL    HW230509   5.714   5.048   6.124 -0.5965 -0.5024  1.6729
 9690SOL     OW30510   2.314   0.707   5.415 -0.0479 -0.3790  0.6470
 9690SOL    HW130511   2.345   0.759   5.489 -0.0360  1.4299 -0.5714
 9690SOL    HW230512   2.236   0.752   5.384 -0.2734 -1.3167 -0.2286
 9691SOL     OW30513   2.859   6.127  11.873  0.5310 -0.1329  0.1262
 9691SOL    HW130514   2.770   6.149  11.848  0.6276  0.4954  0.3378
 9691SOL    HW230515   2.910   6.205  11.853  1.2615 -0.8984 -1.1585
 9692SOL     OW30516   7.232   6.039   2.174 -0.0319 -0.3190  0.2733
 9692SOL    HW130517   7.154   6.090   2.194 -1.0556 -1.5309 -0.5310
 9692SOL    HW230518   7.220   5.956   2.219  0.7868 -0.5310  0.1285
 9693SOL     OW30519   6.906   0.797   7.960  0.1641  0.2015  0.3245
 9693SOL    HW130520   6.975   0.803   8.026 -0.5742  0.0524  1.1333
 9693SOL    HW230521   6.858   0.880   7.967 -0.1498  0.0306  0.2491
 9694SOL     OW30522   3.585   0.436   6.690 -0.2124  0.7327 -0.1462
 9694SOL    HW130523   3.542   0.351   6.688 -0.9049  1.0887 -0.7147
 9694SOL    HW230524   3.587   0.460   6.783 -0.7038  0.4506 -0.0609
 9695SOL     OW30525   3.927   6.913   7.126  0.2178  0.0497  0.3392
 9695SOL    HW130526   3.997   6.942   7.066 -0.0415 -0.3260 -0.1557
 9695SOL    HW230527   3.947   6.821   7.142 -0.5908 -0.2729 -0.4275
 9696SOL     OW30528   7.274   5.922   4.597  0.1066  0.5465 -0.5036
 9696SOL    HW130529   7.277   5.995   4.535  0.8464 -0.3627 -1.5723
 9696SOL    HW230530   7.362   5.917   4.633 -0.0497  0.4336 -0.1347
 9697SOL     OW30531   1.381   2.255   9.205 -0.4788 -0.2593 -0.6981
 9697SOL    HW130532   1.378   2.325   9.139  2.4700  1.1370  0.4709
 9697SOL    HW230533   1.293   2.254   9.243 -0.6990  2.6797 -0.9201
 9698SOL     OW30534   5.264   6.737   7.328 -0.1141  0.4036  0.4670
 9698SOL    HW130535   5.202   6.805   7.351  1.1824  2.2673 -1.2241
 9698SOL    HW230536   5.335   6.746   7.392 -0.3236  0.0588  0.7538
 9699SOL     OW30537   6.199   6.635   2.659  0.3758  0.5456 -0.0232
 9699SOL    HW130538   6.174   6.569   2.595  0.3108  1.5584 -1.0653
 9699SOL    HW230539   6.294   6.628   2.666  0.4813  0.9694 -0.8633
 9700SOL     OW30540   0.279   0.384  11.670 -0.0309 -0.0809  0.0705
 9700SOL    HW130541   0.263   0.454  11.733  0.7829 -0.8378  1.1472
 9700SOL    HW230542   0.223   0.312  11.700 -0.7727  0.0456 -0.9564
 9701SOL     OW30543   0.270   2.182   9.687  0.2648  0.3583 -0.0388
 9701SOL    HW130544   0.326   2.124   9.738 -0.5908  0.3316  0.8923
 9701SOL    HW230545   0.315   2.190   9.603  1.3749 -0.1079  0.4825
 9702SOL     OW30546   5.180   0.432  10.712  0.2577  0.0916 -0.1445
 9702SOL    HW130547   5.201   0.356  10.767 -0.7006 -0.4157 -0.4626
 9702SOL    HW230548   5.196   0.507  10.769  0.8120 -0.3530  0.3106
 9703SOL     OW30549   3.249   2.554   9.823 -0.1291 -0.0007 -0.1335
 9703SOL    HW130550   3.306   2.628   9.803  0.2219  0.2625  1.6822
 9703SOL    HW230551   3.252   2.500   9.745  1.1543  0.9285 -0.7644
 9704SOL     OW30552   4.626   5.553  10.919 -0.0073 -0.3344  0.4031
 9704SOL    HW130553   4.564   5.622  10.895 -0.9263 -1.1674  0.3200
 9704SOL    HW230554   4.585   5.472  10.890  0.7110 -0.9929  1.1561
 9705SOL     OW30555   0.334   1.971   1.002  0.0266  0.6550 -0.2855
 9705SOL    HW130556   0.337   2.056   1.047  0.4002 -0.3467  1.6820
 9705SOL    HW230557   0.425   1.951   0.982 -0.1101  0.9439 -1.2420
 9706SOL     OW30558   2.764   3.563   7.182 -0.4290 -0.1853 -0.1125
 9706SOL    HW130559   2.809   3.638   7.221 -1.0703  1.1280 -1.7760
 9706SOL    HW230560   2.832   3.496   7.176  0.5959  0.8049 -0.0389
 9707SOL     OW30561   2.750   2.146   8.999  0.2867 -0.0438  0.2935
 9707SOL    HW130562   2.760   2.188   8.913  1.4621  1.6523  1.1906
 9707SOL    HW230563   2.673   2.188   9.037 -0.7255 -1.3841 -0.2210
 9708SOL     OW30564   3.645   6.286   5.105 -0.5320 -0.0340 -0.0050
 9708SOL    HW130565   3.552   6.307   5.092 -0.8426 -1.5667 -0.3580
 9708SOL    HW230566   3.667   6.228   5.033  1.6109  2.8038 -1.8099
 9709SOL     OW30567   2.705   1.822  12.211  0.1242 -0.5541  0.5083
 9709SOL    HW130568   2.750   1.881  12.151 -0.0517  0.0302  0.9410
 9709SOL    HW230569   2.622   1.866  12.231  0.1086 -0.8166  1.0487
 9710SOL     OW30570   6.626   5.160   7.261  0.0313 -0.3360 -0.5429
 9710SOL    HW130571   6.566   5.086   7.250 -1.0251  0.1493  1.4927
 9710SOL    HW230572   6.570   5.237   7.259  0.9920  0.3581 -1.6088
 9711SOL     OW30573   0.334   2.959   4.460 -0.7031  0.3214  0.4045
 9711SOL    HW130574   0.348   2.888   4.398 -1.1067  0.3967  0.2239
 9711SOL    HW230575   0.376   3.035   4.420 -1.5587  0.5300 -0.0999
 9712SOL     OW30576   3.636   4.158  11.831  0.0299  0.2996  0.3958
 9712SOL    HW130577   3.553   4.204  11.830  0.5254  1.2519 -1.0291
 9712SOL    HW230578   3.613   4.065  11.824 -0.9219  0.6465 -2.2559
 9713SOL     OW30579   5.463   7.076   3.484 -0.0465 -0.3439  0.1222
 9713SOL    HW130580   5.536   7.015   3.484  0.1582 -0.0987 -0.1041
 9713SOL    HW230581   5.488   7.144   3.546  0.1537  0.0173 -0.3452
 9714SOL     OW30582   6.830   7.741   6.068 -0.5265  0.0750  0.3308
 9714SOL    HW130583   6.834   7.758   5.974  0.6103  0.3198  0.4159
 9714SOL    HW230584   6.818   7.827   6.108 -2.0340 -0.1201  0.3836
 9715SOL     OW30585   0.192   1.898   3.317  0.2847  0.6012 -0.5010
 9715SOL    HW130586   0.285   1.876   3.311  0.0514 -0.8021  0.5776
 9715SOL    HW230587   0.170   1.883   3.409 -0.9757  1.0656 -0.7127
 9716SOL     OW30588   2.146   4.073   5.168 -0.1310 -0.2610 -0.0869
 9716SOL    HW130589   2.159   4.031   5.253  0.8412  1.8159  0.8648
 9716SOL    HW230590   2.148   4.167   5.187 -0.7857  0.2570 -2.2944
 9717SOL     OW30591   3.565   3.494   1.622  0.6051 -0.2705 -0.1988
 9717SOL    HW130592   3.473   3.472   1.610  0.7684  0.0580 -2.6733
 9717SOL    HW230593   3.566   3.590   1.624  0.6651 -0.2671  2.6936
 9718SOL     OW30594   6.069   2.556   1.193  0.3659  0.3365  0.2721
 9718SOL    HW130595   6.022   2.477   1.165 -0.2759  0.4126  1.1008
 9718SOL    HW230596   6.149   2.523   1.234  1.7037  0.2425 -2.2367
 9719SOL     OW30597   0.613   4.272   9.352  0.3967 -0.0805  0.3779
 9719SOL    HW130598   0.571   4.282   9.437  1.3722 -1.1720  1.0111
 9719SOL    HW230599   0.581   4.188   9.319  1.9508 -0.8630  0.8072
 9720SOL     OW30600   5.201   4.929   8.556 -0.0024 -0.2410  0.2761
 9720SOL    HW130601   5.261   4.935   8.631  1.0470 -1.9811 -0.3475
 9720SOL    HW230602   5.251   4.881   8.490 -2.0036 -1.5687 -0.3609
 9721SOL     OW30603   0.422   1.328   7.551  0.4826  0.0127  0.2292
 9721SOL    HW130604   0.465   1.320   7.466  3.4114  0.8956  1.4932
 9721SOL    HW230605   0.371   1.409   7.544 -0.1225 -0.4554 -0.9803
 9722SOL     OW30606   7.340   7.119   3.740 -0.0241  0.5940  0.3795
 9722SOL    HW130607   7.411   7.098   3.800 -0.0183 -1.3191 -0.2228
 9722SOL    HW230608   7.277   7.169   3.792  0.3150 -0.3856  1.7674
 9723SOL     OW30609   2.983   7.631   7.642  0.5230  0.3772  0.0821
 9723SOL    HW130610   2.991   7.682   7.561  1.0061  0.3899  0.1319
 9723SOL    HW230611   2.892   7.641   7.668  0.4109  0.5292 -0.3607
 9724SOL     OW30612   5.556   4.651   2.032 -0.2977 -0.1553  0.0636
 9724SOL    HW130613   5.621   4.655   1.962 -0.5071 -0.4481 -0.1502
 9724SOL    HW230614   5.587   4.713   2.097 -0.7053  0.9738 -0.7997
 9725SOL     OW30615   4.308   6.531  10.919  0.0555 -0.5980 -0.7069
 9725SOL    HW130616   4.321   6.545  10.825 -0.7740 -1.5100 -0.9681
 9725SOL    HW230617   4.259   6.607  10.948 -0.6898 -0.8624 -1.2479
 9726SOL     OW30618   0.335   7.734   1.970 -0.0624  0.3238  0.2565
 9726SOL    HW130619   0.411   7.677   1.979 -0.5473 -0.2606  0.7261
 9726SOL    HW230620   0.260   7.678   1.989 -0.6601  0.7614 -0.7520
 9727SOL     OW30621   1.623   4.021   8.766  0.2119 -0.3258  0.3945
 9727SOL    HW130622   1.686   4.047   8.833  0.4616 -1.5780  0.6734
 9727SOL    HW230623   1.659   3.940   8.730  0.0034  0.2392 -1.1574
 9728SOL     OW30624   6.241   5.996   1.498  0.4527  0.3193 -0.0635
 9728SOL    HW130625   6.181   5.979   1.426 -1.5693 -1.5523  1.8876
 9728SOL    HW230626   6.234   6.090   1.514  0.7623  0.7301 -2.0851
 9729SOL     OW30627   5.748   3.548   5.706 -0.6257  0.0181 -0.0742
 9729SOL    HW130628   5.800   3.591   5.774 -0.9841  0.9243 -0.3531
 9729SOL    HW230629   5.808   3.486   5.665 -0.3714 -0.4465  0.9774
 9730SOL     OW30630   5.089   6.877   3.158 -0.1218  0.0218  0.2912
 9730SOL    HW130631   5.184   6.891   3.157  0.0760 -1.2760 -0.1908
 9730SOL    HW230632   5.078   6.783   3.172 -1.2900 -0.1537 -1.4839
 9731SOL     OW30633   4.501   1.949   1.214  0.4238 -0.2183 -0.2717
 9731SOL    HW130634   4.475   2.041   1.208 -0.3172 -0.5188 -2.3600
 9731SOL    HW230635   4.419   1.901   1.224  0.8394 -0.6630  1.3440
 9732SOL     OW30636   6.515   7.725   5.158 -0.2516 -0.3853  0.2061
 9732SOL    HW130637   6.500   7.646   5.106 -0.5907  0.9190 -1.8038
 9732SOL    HW230638   6.439   7.731   5.215 -2.4106  0.5865 -2.5299
 9733SOL     OW30639   1.143   4.824   9.348 -0.2811  0.1847 -0.5075
 9733SOL    HW130640   1.199   4.811   9.272  0.4257 -1.1864  0.2078
 9733SOL    HW230641   1.192   4.785   9.421  0.0215  3.2509  1.1010
 9734SOL     OW30642   5.815   6.470   0.834  0.1539 -0.6106  0.2440
 9734SOL    HW130643   5.877   6.542   0.845  0.8038 -1.2675  0.9968
 9734SOL    HW230644   5.794   6.443   0.924 -0.1668 -1.2935 -0.0298
 9735SOL     OW30645   4.613   5.291   1.839 -0.3427  0.2915  0.3385
 9735SOL    HW130646   4.523   5.318   1.854 -0.3539  0.8856 -0.6847
 9735SOL    HW230647   4.666   5.362   1.875 -0.2457 -0.3345  1.4875
 9736SOL     OW30648   7.019   4.822   9.605  0.6984  0.3320  0.4284
 9736SOL    HW130649   7.076   4.785   9.673  1.2557 -0.6712 -0.5583
 9736SOL    HW230650   6.965   4.748   9.577 -0.7000  1.1336  0.9346
 9737SOL     OW30651   5.666   3.580   7.628  0.3400  0.0819  0.0911
 9737SOL    HW130652   5.590   3.578   7.569 -0.3205  1.0091  0.8720
 9737SOL    HW230653   5.637   3.531   7.705  0.4358  0.6556  0.4966
 9738SOL     OW30654   2.360   0.420   3.710  0.3248  0.6518 -0.2954
 9738SOL    HW130655   2.308   0.483   3.661  0.0698 -0.3884 -1.4010
 9738SOL    HW230656   2.303   0.391   3.781 -0.5752 -0.3730 -1.4116
 9739SOL     OW30657   4.812   1.895   7.162 -0.0183  0.1402 -0.2976
 9739SOL    HW130658   4.788   1.916   7.071  1.4031  3.2375 -0.0977
 9739SOL    HW230659   4.859   1.973   7.192  0.6583 -1.3125  2.7218
 9740SOL     OW30660   2.662   6.889   4.204 -0.0523 -0.5916  0.1940
 9740SOL    HW130661   2.674   6.898   4.110 -1.8189  1.4816  0.0810
 9740SOL    HW230662   2.625   6.802   4.216 -2.5867  0.1346 -1.4417
 9741SOL     OW30663   4.621   2.991  10.607 -0.0876  0.3248 -0.4177
 9741SOL    HW130664   4.690   3.019  10.546  1.7321 -2.3735  0.1993
 9741SOL    HW230665   4.657   3.007  10.694 -0.9217  0.3187 -0.0587
 9742SOL     OW30666   5.318   2.471   4.526  0.5679 -0.1745 -0.4326
 9742SOL    HW130667   5.413   2.482   4.523  0.5153  0.1668 -0.8097
 9742SOL    HW230668   5.284   2.559   4.543  0.3970 -0.5459  1.3411
 9743SOL     OW30669   6.854   0.740   6.889  0.1178 -0.1949 -0.2797
 9743SOL    HW130670   6.871   0.827   6.924  1.6229 -0.2735 -0.7474
 9743SOL    HW230671   6.779   0.708   6.938 -0.3858  1.3167 -0.0251
 9744SOL     OW30672   7.844   7.759  10.334 -0.6304 -0.4379  0.3201
 9744SOL    HW130673   7.776   7.826  10.330  0.7455  1.0438  0.9406
 9744SOL    HW230674   7.891   7.767  10.251 -1.0283 -1.2608  0.0115
 9745SOL     OW30675   6.029   6.818   5.318 -0.0416  0.1228  0.3560
 9745SOL    HW130676   6.074   6.833   5.401  1.5132  0.7203 -0.5619
 9745SOL    HW230677   5.936   6.816   5.342  0.4076 -0.8177  2.2578
 9746SOL     OW30678   4.772   6.859   7.135 -0.1341  0.1215 -0.2972
 9746SOL    HW130679   4.680   6.886   7.139 -0.3866 -0.8461  1.6787
 9746SOL    HW230680   4.777   6.804   7.057 -0.4207  2.7768 -2.3291
 9747SOL     OW30681   2.157   2.795   6.431  0.1250  0.1363 -0.0492
 9747SOL    HW130682   2.149   2.855   6.506 -0.9330 -0.1222  0.0618
 9747SOL    HW230683   2.098   2.833   6.365  0.5816  0.0227 -0.5229
 9748SOL     OW30684   0.237   1.001  12.364 -0.2974 -0.7686 -0.1813
 9748SOL    HW130685   0.190   0.921  12.339 -0.1395 -0.9916  0.2245
 9748SOL    HW230686   0.272   0.982  12.451  1.3289 -0.9543 -0.8367
 9749SOL     OW30687   3.638   1.887   1.047 -0.4130  0.0673  0.0517
 9749SOL    HW130688   3.563   1.903   0.989 -0.7736  1.2165  0.8150
 9749SOL    HW230689   3.609   1.918   1.133  1.4120  1.8569  0.0728
 9750SOL     OW30690   7.244   7.074   1.543 -0.3998 -0.1023  0.2611
 9750SOL    HW130691   7.325   7.123   1.555  0.5444 -1.1845 -1.3715
 9750SOL    HW230692   7.205   7.070   1.631  1.7998 -0.4306  1.2816
 9751SOL     OW30693   7.935   0.341   7.541 -0.3215 -0.3968 -0.3740
 9751SOL    HW130694   8.022   0.312   7.568  0.9745 -0.6826 -4.2584
 9751SOL    HW230695   7.902   0.269   7.487 -1.0138  1.4738 -2.5841
 9752SOL     OW30696   0.459   7.032   6.642  0.0838 -0.0023  0.4134
 9752SOL    HW130697   0.382   7.056   6.694  0.5275  1.6584  0.3345
 9752SOL    HW230698   0.488   7.114   6.602  1.5940 -0.6973  0.0280
 9753SOL     OW30699   5.532   5.894   8.960 -0.2540 -0.4628  0.5950
 9753SOL    HW130700   5.575   5.849   8.887 -0.1735  0.7774 -0.1632
 9753SOL    HW230701   5.439   5.873   8.949 -0.4276  0.7818 -0.7170
 9754SOL     OW30702   4.446   3.681   8.363  0.0771 -0.2360  0.3845
 9754SOL    HW130703   4.511   3.624   8.321  0.0377  0.0478 -0.0720
 9754SOL    HW230704   4.398   3.720   8.289 -0.1514  0.0900  0.7036
 9755SOL     OW30705   0.889   3.241  12.080  0.1270  0.1682  0.0505
 9755SOL    HW130706   0.926   3.213  11.996  4.2134  3.1427  0.5523
 9755SOL    HW230707   0.942   3.198  12.146  0.2439  1.6164  0.9476
 9756SOL     OW30708   1.759   7.963   4.813 -0.6782  0.3868  0.1199
 9756SOL    HW130709   1.837   7.968   4.758 -2.4787  1.9355 -2.5056
 9756SOL    HW230710   1.686   7.963   4.751 -2.8221 -1.2052  2.4412
 9757SOL     OW30711   0.542   1.255   3.193  0.1957  0.5202 -0.2774
 9757SOL    HW130712   0.549   1.323   3.259 -0.9775  0.5541 -0.1554
 9757SOL    HW230713   0.632   1.234   3.169  0.5922  1.3990  0.4104
 9758SOL     OW30714   7.553   0.878   4.627  0.1207  0.8381  0.1476
 9758SOL    HW130715   7.604   0.837   4.697  0.8247  0.8539 -0.3593
 9758SOL    HW230716   7.463   0.876   4.660  0.3395  0.1476  0.7280
 9759SOL     OW30717   6.750   4.721   5.824  0.2182 -0.0781 -0.1155
 9759SOL    HW130718   6.845   4.734   5.835  0.2467 -0.4884  0.1483
 9759SOL    HW230719   6.724   4.672   5.901 -0.4810  1.2588  0.5185
 9760SOL     OW30720   1.592   1.817   0.647  0.5338 -0.2239 -0.1636
 9760SOL    HW130721   1.668   1.797   0.593 -0.7109 -2.2108 -1.2906
 9760SOL    HW230722   1.611   1.776   0.731  0.7647 -0.6067 -0.3997
 9761SOL     OW30723   3.639   7.112   4.885  0.2200  0.6701  0.2094
 9761SOL    HW130724   3.634   7.163   4.805 -0.8766  2.7876  1.5379
 9761SOL    HW230725   3.577   7.040   4.873 -0.6013  1.4797 -0.4959
 9762SOL     OW30726   3.077   2.068  10.761 -0.2130 -0.0829  0.2494
 9762SOL    HW130727   3.155   2.097  10.713  0.6158 -1.0295  0.9841
 9762SOL    HW230728   3.055   2.143  10.817 -0.7099  0.7254 -0.9806
 9763SOL     OW30729   7.872   3.467   1.435  0.9506 -0.2635 -0.6259
 9763SOL    HW130730   7.854   3.478   1.528  2.1771 -1.1556 -0.2582
 9763SOL    HW230731   7.811   3.526   1.391  0.0176 -0.1988  0.7165
 9764SOL     OW30732   6.449   3.979  11.365  0.5341  0.0102 -0.0119
 9764SOL    HW130733   6.450   4.073  11.346  0.7657  0.2404  1.0680
 9764SOL    HW230734   6.358   3.960  11.387  0.4893 -0.0214 -0.2210
 9765SOL     OW30735   4.333   1.182   2.185  0.2606 -0.2841  0.3076
 9765SOL    HW130736   4.343   1.241   2.260  0.9846  0.2181 -0.1762
 9765SOL    HW230737   4.292   1.235   2.118  1.7072 -0.0545 -0.4301
 9766SOL     OW30738   1.408   7.578  12.074  0.0966 -0.0791 -0.9320
 9766SOL    HW130739   1.482   7.571  12.014  0.8028 -2.1225  0.0896
 9766SOL    HW230740   1.367   7.661  12.052  2.3852  0.8806 -1.8848
 9767SOL     OW30741   1.890   2.626  11.157  0.0987  0.0961 -0.2373
 9767SOL    HW130742   1.851   2.635  11.070  0.8107  1.0662 -0.4710
 9767SOL    HW230743   1.981   2.603  11.140 -0.2305 -1.7247  0.2957
 9768SOL     OW30744   5.056   0.418   1.049 -0.0220  0.3852  0.3585
 9768SOL    HW130745   5.064   0.327   1.018  2.1622  0.5703  0.2300
 9768SOL    HW230746   5.053   0.411   1.144 -0.5109  0.1482  0.3285
 9769SOL     OW30747   4.943   6.048   8.419  0.0707  0.3377  0.0950
 9769SOL    HW130748   4.996   6.014   8.491  0.0252 -0.9618 -0.4473
 9769SOL    HW230749   4.942   6.142   8.431  3.6362  0.5959 -0.6323
 9770SOL     OW30750   4.360   6.756   1.369  0.0468 -0.6792 -0.2765
 9770SOL    HW130751   4.363   6.710   1.453  0.4882 -0.2892 -0.0774
 9770SOL    HW230752   4.370   6.848   1.392 -1.2096 -0.4259 -0.6349
 9771SOL     OW30753   6.854   5.010   3.290 -0.1662 -0.0078  0.1351
 9771SOL    HW130754   6.911   4.940   3.318  0.2361  1.2418  2.7161
 9771SOL    HW230755   6.858   5.008   3.194  2.2305 -1.5044  0.2051
 9772SOL     OW30756   1.134   7.329   2.411 -0.2342  0.2450  0.1103
 9772SOL    HW130757   1.209   7.270   2.419  0.6451  1.0025 -1.8178
 9772SOL    HW230758   1.062   7.273   2.381  0.0700 -0.1520  0.1130
 9773SOL     OW30759   2.825   6.445   4.989 -0.0747  0.2858 -0.2109
 9773SOL    HW130760   2.764   6.455   5.062 -0.0389  0.8939 -0.2534
 9773SOL    HW230761   2.780   6.388   4.927  0.3037 -1.0514  0.7169
 9774SOL     OW30762   4.481   6.851   6.855 -0.2315 -0.3872  0.3495
 9774SOL    HW130763   4.442   6.938   6.857  0.1620 -0.2236  1.2249
 9774SOL    HW230764   4.461   6.813   6.941 -2.4894 -2.1252 -0.8109
 9775SOL     OW30765   7.088   0.851  11.558 -0.2404 -0.0649 -0.6149
 9775SOL    HW130766   7.128   0.770  11.591 -0.9197 -0.0512  0.3015
 9775SOL    HW230767   7.160   0.913  11.552  0.0235 -0.2712  0.2480
 9776SOL     OW30768   5.846   6.806   3.726 -0.7594  0.4632  0.1930
 9776SOL    HW130769   5.773   6.819   3.787 -0.1005  0.3678  1.0144
 9776SOL    HW230770   5.840   6.881   3.666 -0.4497  1.4656  1.3668
 9777SOL     OW30771   6.104   7.049   3.144  0.0421 -0.6113  0.9776
 9777SOL    HW130772   6.185   7.084   3.182  0.3519 -0.2740  0.0358
 9777SOL    HW230773   6.040   7.054   3.215 -0.1945  2.7050  0.6622
 9778SOL     OW30774   1.192   2.005   5.520  0.1379  0.0300 -0.2992
 9778SOL    HW130775   1.155   2.090   5.546 -0.0436  0.2715 -1.3142
 9778SOL    HW230776   1.131   1.972   5.454  0.9433 -0.2532 -0.9119
 9779SOL     OW30777   3.059   1.261   2.243  0.2424  0.1319  0.6767
 9779SOL    HW130778   3.090   1.291   2.157  0.1621 -2.9410 -0.5692
 9779SOL    HW230779   2.965   1.246   2.230 -0.1256  1.3061  1.8679
 9780SOL     OW30780   0.966   5.716   9.096 -0.0087 -0.0357  0.3825
 9780SOL    HW130781   0.946   5.638   9.148 -0.9161  0.5342  0.9125
 9780SOL    HW230782   1.011   5.682   9.019  0.4535 -0.9971  1.0491
 9781SOL     OW30783   0.318   1.267  12.413 -0.1798  0.4347 -0.1676
 9781SOL    HW130784   0.232   1.307  12.424 -0.2372  0.1026  0.6915
 9781SOL    HW230785   0.301   1.187  12.363 -0.3523  0.4479 -0.1314
 9782SOL     OW30786   7.977   6.858   8.704 -0.2647  0.3932  0.0510
 9782SOL    HW130787   8.045   6.842   8.639  2.4850  0.4699  2.7354
 9782SOL    HW230788   7.901   6.886   8.652  1.0236 -1.6280 -3.2543
 9783SOL     OW30789   4.799   2.615   8.539 -0.2317 -0.0637 -0.4539
 9783SOL    HW130790   4.838   2.601   8.626  0.2439  1.6043 -0.3596
 9783SOL    HW230791   4.867   2.586   8.478  0.5213  1.1951 -0.2643
 9784SOL     OW30792   3.894   4.785   2.378 -0.0008  0.0535 -0.1864
 9784SOL    HW130793   3.957   4.841   2.424 -0.0607  0.2405 -0.3336
 9784SOL    HW230794   3.816   4.840   2.367 -0.0361 -0.0385 -0.3880
 9785SOL     OW30795   3.771   3.555  11.427  0.1302 -0.2155  0.1182
 9785SOL    HW130796   3.780   3.636  11.478 -1.8550  1.1883 -1.6261
 9785SOL    HW230797   3.822   3.571  11.348 -2.3478  0.4914 -1.4453
 9786SOL     OW30798   2.502   3.832   3.266 -0.3205 -0.1658  0.0479
 9786SOL    HW130799   2.525   3.821   3.358  0.5275 -5.0433 -0.4465
 9786SOL    HW230800   2.406   3.822   3.264 -0.5303  1.4752  0.4442
 9787SOL     OW30801   5.844   7.608   2.363  0.2481 -0.3589  0.0087
 9787SOL    HW130802   5.778   7.575   2.424  0.6802 -0.6632  0.3166
 9787SOL    HW230803   5.864   7.534   2.306  0.3789 -0.2913 -0.0339
 9788SOL     OW30804   7.917   1.146   9.029 -0.8348  0.0813 -0.2113
 9788SOL    HW130805   7.875   1.169   9.112 -2.6622 -0.6881 -0.8701
 9788SOL    HW230806   7.893   1.217   8.969  1.2037  1.1003  0.0621
 9789SOL     OW30807   4.529   5.288   8.194  0.2362  0.4772 -0.2545
 9789SOL    HW130808   4.613   5.288   8.241  0.7794 -0.3804 -1.1762
 9789SOL    HW230809   4.477   5.355   8.237  1.4702  1.1609  0.2139
 9790SOL     OW30810   0.880   2.302   7.556  0.6747  0.3427  0.0105
 9790SOL    HW130811   0.974   2.320   7.555  0.4736  1.5880 -2.1995
 9790SOL    HW230812   0.857   2.302   7.649  2.6734  1.0694  0.5516
 9791SOL     OW30813   6.430   3.025   9.755 -0.6588 -0.3114  0.0581
 9791SOL    HW130814   6.338   3.047   9.767 -0.7034 -0.9782  1.0816
 9791SOL    HW230815   6.440   3.013   9.660 -1.0050  2.2791 -0.3824
 9792SOL     OW30816   2.995   6.801   7.769  0.1867  0.1681 -0.0585
 9792SOL    HW130817   3.012   6.725   7.824 -0.6363 -0.7167 -0.9670
 9792SOL    HW230818   2.944   6.766   7.695 -1.4626  1.8149  0.2047
 9793SOL     OW30819   2.194   5.706   2.085  0.2997  0.4422 -0.4757
 9793SOL    HW130820   2.222   5.747   2.167  0.1099  0.0758 -0.2230
 9793SOL    HW230821   2.161   5.620   2.112 -3.4160  1.6969 -0.3469
 9794SOL     OW30822   7.283   4.553   0.522 -0.4224 -0.2203 -0.6163
 9794SOL    HW130823   7.258   4.529   0.612 -0.1772 -0.5608 -0.6378
 9794SOL    HW230824   7.332   4.634   0.532 -0.8391  0.0226 -0.4942
 9795SOL     OW30825   6.354   2.262   8.689  0.1942  0.1159 -0.2828
 9795SOL    HW130826   6.330   2.235   8.601 -0.7480  0.0891 -0.0226
 9795SOL    HW230827   6.320   2.350   8.699 -0.4953 -0.2099  0.3557
 9796SOL     OW30828   3.811   6.167   7.231 -0.7758 -0.3726  0.1577
 9796SOL    HW130829   3.789   6.257   7.253  0.6816  0.0195  0.0739
 9796SOL    HW230830   3.808   6.165   7.135 -0.1455 -0.2311  0.1324
 9797SOL     OW30831   2.847   1.845   9.223 -0.0036  0.2592  0.1304
 9797SOL    HW130832   2.786   1.773   9.242  0.0097  0.0370 -0.6318
 9797SOL    HW230833   2.869   1.834   9.131  2.2824 -0.4972  0.6915
 9798SOL     OW30834   7.468   5.982  11.570  0.2935 -0.0952 -0.3522
 9798SOL    HW130835   7.471   5.981  11.474 -0.8806 -1.1693 -0.4181
 9798SOL    HW230836   7.432   6.067  11.592  0.0035 -0.0704 -0.9020
 9799SOL     OW30837   1.852   4.187   5.654  0.1797 -0.4286 -0.2579
 9799SOL    HW130838   1.824   4.128   5.725  0.8178  1.6713  1.8814
 9799SOL    HW230839   1.774   4.195   5.598 -0.2597 -2.3802 -0.0056
 9800SOL     OW30840   1.944   6.923   1.523 -0.2217 -0.2562  0.7336
 9800SOL    HW130841   1.894   6.996   1.486 -0.5414  0.0555  1.7503
 9800SOL    HW230842   2.017   6.965   1.569  1.0109 -0.7011 -0.7261
 9801SOL     OW30843   4.510   2.142   4.715  0.4242  0.2914 -0.5243
 9801SOL    HW130844   4.529   2.166   4.806  1.4363  1.2306 -0.9646
 9801SOL    HW230845   4.545   2.214   4.663 -0.8426  0.1469 -1.6332
 9802SOL     OW30846   1.317   7.750   7.697 -0.0436  0.6727  0.4949
 9802SOL    HW130847   1.235   7.793   7.673 -2.0282 -2.3242  1.4383
 9802SOL    HW230848   1.349   7.711   7.616  0.3778  1.6117  0.1863
 9803SOL     OW30849   0.410   7.173  12.345  0.1257 -0.2563  0.0324
 9803SOL    HW130850   0.448   7.118  12.414 -0.4579 -0.4125  0.2338
 9803SOL    HW230851   0.355   7.113  12.293 -1.1262  0.2581  0.7126
 9804SOL     OW30852   5.396   5.051   7.164  0.2464  0.2612 -0.1862
 9804SOL    HW130853   5.328   4.986   7.146 -0.4943  1.1597 -0.6542
 9804SOL    HW230854   5.349   5.132   7.182  1.1803  0.8161 -0.1761
 9805SOL     OW30855   2.615   4.017  10.235  0.1791  0.2100 -0.3218
 9805SOL    HW130856   2.699   4.053  10.264  0.1901 -0.1155  0.0614
 9805SOL    HW230857   2.593   4.067  10.156 -0.0569  1.3980  0.4794
 9806SOL     OW30858   4.212   0.594   4.234  0.1322 -0.1931 -0.0270
 9806SOL    HW130859   4.300   0.632   4.234  0.1138 -0.0058 -2.4315
 9806SOL    HW230860   4.154   0.670   4.224 -0.2677 -0.4074  0.5928
 9807SOL     OW30861   6.768   3.874   4.048 -0.1945  0.5010  0.1031
 9807SOL    HW130862   6.824   3.847   4.121  0.2694 -0.7859 -0.6917
 9807SOL    HW230863   6.719   3.949   4.082 -0.8250 -0.7360  2.1448
 9808SOL     OW30864   5.177   6.576   9.303 -0.2227  0.0833 -0.2145
 9808SOL    HW130865   5.081   6.575   9.304 -0.2703  0.3501 -1.6038
 9808SOL    HW230866   5.201   6.490   9.269 -0.0012  0.2933 -0.5948
 9809SOL     OW30867   7.073   3.400   2.431  0.6691  0.0242 -0.0272
 9809SOL    HW130868   7.098   3.367   2.517  1.0172  0.6638  0.1271
 9809SOL    HW230869   7.088   3.494   2.437 -0.6327  0.2665 -0.3340
 9810SOL     OW30870   3.987   1.355   6.831 -0.1425 -0.1330  1.0244
 9810SOL    HW130871   4.018   1.297   6.762 -2.0949  0.1007 -0.1248
 9810SOL    HW230872   4.030   1.439   6.814  0.3750 -0.4205  0.8928
 9811SOL     OW30873   2.905   4.389  10.172 -0.0209  0.0355  0.5157
 9811SOL    HW130874   2.886   4.482  10.159  0.1311  0.3329  2.1371
 9811SOL    HW230875   2.994   4.378  10.141 -0.1811  0.3423 -0.0562
 9812SOL     OW30876   7.821   6.625   8.843  0.1871  0.0392  0.5372
 9812SOL    HW130877   7.903   6.576   8.852 -0.5219 -0.8852  2.6465
 9812SOL    HW230878   7.827   6.693   8.910 -1.3899 -1.0480  1.8743
 9813SOL     OW30879   4.205   4.606   6.134 -0.5782 -0.3442  0.2382
 9813SOL    HW130880   4.201   4.522   6.179 -0.2686 -0.6885 -0.3563
 9813SOL    HW230881   4.298   4.629   6.134 -0.6429 -0.0762  0.2618
 9814SOL     OW30882   4.600   2.536  10.949  0.0160  0.0293 -0.1789
 9814SOL    HW130883   4.634   2.614  10.906  1.7498  0.2169  1.4363
 9814SOL    HW230884   4.522   2.565  10.995 -0.1493  0.4745 -0.7294
 9815SOL     OW30885   5.002   4.814   7.682 -0.4458  0.5812 -0.1457
 9815SOL    HW130886   4.975   4.893   7.728 -0.2630 -0.6056  2.1791
 9815SOL    HW230887   4.923   4.782   7.639 -0.9841  1.0261  0.4971
 9816SOL     OW30888   6.516   2.313   5.819 -0.0317 -0.6046  0.3444
 9816SOL    HW130889   6.456   2.351   5.755  2.4056  0.7937 -1.2498
 9816SOL    HW230890   6.547   2.387   5.870  1.3623 -1.0719  0.2165
 9817SOL     OW30891   4.379   7.138   2.499  0.5429 -0.2024 -0.5916
 9817SOL    HW130892   4.397   7.143   2.405  0.4454  1.0431 -0.5612
 9817SOL    HW230893   4.288   7.109   2.505  0.8603 -1.2964 -0.8463
 9818SOL     OW30894   2.745   5.552   2.619 -0.0187 -0.1823  0.7337
 9818SOL    HW130895   2.779   5.638   2.645  0.1196  0.0494 -0.1945
 9818SOL    HW230896   2.804   5.523   2.549  0.2609 -1.2816  1.3960
 9819SOL     OW30897   0.805   1.449   8.652 -0.4480  0.1183 -0.1137
 9819SOL    HW130898   0.811   1.484   8.563 -2.8007 -0.1908 -0.4514
 9819SOL    HW230899   0.896   1.430   8.676  0.2807  0.5042 -2.3111
 9820SOL     OW30900   0.903   7.853   3.807 -0.4880  0.5498  0.0203
 9820SOL    HW130901   0.842   7.922   3.782 -0.9861  0.7531  1.6922
 9820SOL    HW230902   0.905   7.856   3.903  1.6558  0.1283  0.0418
 9821SOL     OW30903   2.758   3.761   7.908  0.0581  0.1093  0.0335
 9821SOL    HW130904   2.833   3.713   7.872 -0.4385 -0.2460 -0.5577
 9821SOL    HW230905   2.706   3.785   7.831 -0.9967 -0.6108  0.4959
 9822SOL     OW30906   1.454   6.369   9.411  0.5334  0.3163  0.3898
 9822SOL    HW130907   1.365   6.334   9.411  0.4983  0.4052  0.3377
 9822SOL    HW230908   1.503   6.310   9.468 -0.5408  2.7591  4.2383
 9823SOL     OW30909   3.984   4.890   6.624  0.1882 -0.8519 -0.1819
 9823SOL    HW130910   4.073   4.884   6.660  0.0909 -0.5962  0.1082
 9823SOL    HW230911   3.949   4.971   6.661 -0.1279 -0.8943 -0.3851
 9824SOL     OW30912   0.180   2.116   1.857  0.2168 -0.3433  0.2093
 9824SOL    HW130913   0.232   2.076   1.786 -0.0782 -1.8195  0.7896
 9824SOL    HW230914   0.213   2.074   1.937 -1.2231 -0.6433  0.6795
 9825SOL     OW30915   4.871   1.114   7.881 -1.2304  0.0384 -0.1878
 9825SOL    HW130916   4.954   1.068   7.895  0.0704  1.6929 -1.9500
 9825SOL    HW230917   4.809   1.067   7.936  0.8080 -1.4035  1.0536
 9826SOL     OW30918   0.892   0.854   6.595 -0.0071  0.1911 -0.0350
 9826SOL    HW130919   0.804   0.818   6.602  0.3129 -0.7167 -0.5476
 9826SOL    HW230920   0.879   0.947   6.579 -0.9359 -0.3143 -2.6279
 9827SOL     OW30921   2.248   2.268   7.469  0.4827 -0.0564  0.5026
 9827SOL    HW130922   2.157   2.245   7.456  0.5928 -0.7704  0.9725
 9827SOL    HW230923   2.297   2.189   7.446  1.0564  0.6306 -0.7563
 9828SOL     OW30924   0.111   5.031   0.036 -0.5749 -0.3748 -0.2730
 9828SOL    HW130925   0.153   5.117   0.045 -0.9328 -0.2478  0.1964
 9828SOL    HW230926   0.181   4.974   0.003  0.2610 -0.3862  1.4039
 9829SOL     OW30927   7.759   4.657   5.155 -0.3266  0.0475  1.0791
 9829SOL    HW130928   7.695   4.598   5.194 -0.4963 -1.0334 -0.7585
 9829SOL    HW230929   7.833   4.601   5.132  0.4219  0.9298  1.2437
 9830SOL     OW30930   7.709   5.421   2.663  0.5703 -0.0135  0.2276
 9830SOL    HW130931   7.766   5.449   2.734  1.3176 -0.1360 -0.3093
 9830SOL    HW230932   7.621   5.430   2.698  0.8813  0.9476  0.7993
 9831SOL     OW30933   5.833   0.758  10.927 -0.0162 -0.1075 -0.4440
 9831SOL    HW130934   5.850   0.850  10.906  2.6622  1.1584  5.1765
 9831SOL    HW230935   5.739   0.747  10.912 -0.4243  3.5021 -1.4524
 9832SOL     OW30936   1.805   2.574   2.002 -0.0010 -0.4167 -0.1308
 9832SOL    HW130937   1.743   2.504   2.022  0.6035 -1.1600 -0.7289
 9832SOL    HW230938   1.838   2.551   1.914 -0.2219  0.9457 -0.5869
 9833SOL     OW30939   6.433   1.124   1.122 -0.2231 -0.2267  0.2359
 9833SOL    HW130940   6.402   1.212   1.101 -1.1719 -0.4472  0.6594
 9833SOL    HW230941   6.509   1.111   1.065 -0.2668  0.7403 -0.0588
 9834SOL     OW30942   5.479   5.633  12.205 -0.8714  0.4759 -0.1887
 9834SOL    HW130943   5.398   5.684  12.206 -1.0587  0.2627 -1.8020
 9834SOL    HW230944   5.451   5.542  12.215 -0.6746  0.5256  0.9533
 9835SOL     OW30945   7.361   7.861   3.918  0.0718 -0.0380  0.0856
 9835SOL    HW130946   7.408   7.859   3.835  1.1300  0.0437  0.6673
 9835SOL    HW230947   7.359   7.769   3.947  0.6947  0.0807  0.5103
 9836SOL     OW30948   5.318   1.939  11.817  0.2527  0.0590 -0.9451
 9836SOL    HW130949   5.303   2.029  11.788  1.7716  0.3016 -1.0590
 9836SOL    HW230950   5.281   1.885  11.747  0.0921  0.6027 -1.2862
 9837SOL     OW30951   1.238   4.808   2.666 -0.3455 -0.3011 -0.4876
 9837SOL    HW130952   1.313   4.864   2.686 -1.8098  1.5030  0.2472
 9837SOL    HW230953   1.173   4.867   2.629 -0.7207 -2.1617 -3.0855
 9838SOL     OW30954   4.878   3.453   6.850  0.7018 -0.5330  0.4629
 9838SOL    HW130955   4.866   3.470   6.756 -1.8363  1.8308  1.0801
 9838SOL    HW230956   4.841   3.365   6.862 -0.4268 -0.2368 -0.5500
 9839SOL     OW30957   2.570   5.618  10.173 -0.5615 -0.0288 -0.0069
 9839SOL    HW130958   2.535   5.558  10.107  1.2987 -1.3347  0.1124
 9839SOL    HW230959   2.565   5.704  10.131  1.7491 -0.9558 -2.4711
 9840SOL     OW30960   4.531   4.283   2.966  0.5301  0.2914  0.3562
 9840SOL    HW130961   4.596   4.239   3.021  0.0163  0.1776  0.8771
 9840SOL    HW230962   4.451   4.283   3.018  0.4501  1.6390  0.2700
 9841SOL     OW30963   1.717   4.029  12.017 -0.1120  0.2477 -0.2338
 9841SOL    HW130964   1.734   3.950  11.965 -0.4305  0.3518 -0.4937
 9841SOL    HW230965   1.721   3.999  12.108  5.4266  0.8794  0.0710
 9842SOL     OW30966   2.918   0.229   1.058 -0.0701 -0.3730 -0.2143
 9842SOL    HW130967   2.886   0.233   0.968 -0.8100 -1.4956 -0.0167
 9842SOL    HW230968   2.961   0.314   1.072 -0.3422 -0.0097 -1.4669
 9843SOL     OW30969   5.615   2.154   8.291 -0.2400 -0.4315 -0.0057
 9843SOL    HW130970   5.533   2.105   8.293 -0.6176  0.2031  1.6359
 9843SOL    HW230971   5.673   2.106   8.350 -0.5395  0.9109  1.4433
 9844SOL     OW30972   5.811   1.717   3.052 -0.2280  0.0887 -0.0609
 9844SOL    HW130973   5.794   1.630   3.015 -0.0632 -0.3834  0.9151
 9844SOL    HW230974   5.727   1.761   3.049 -0.4596 -0.3395 -0.0105
 9845SOL     OW30975   7.456   7.877  10.834  0.0198  0.3225  0.2625
 9845SOL    HW130976   7.432   7.879  10.927  2.0847 -0.0073  0.8464
 9845SOL    HW230977   7.527   7.814  10.829 -0.3239  0.0423 -1.6367
 9846SOL     OW30978   0.231   0.522   5.187  0.1734  0.7866 -0.3543
 9846SOL    HW130979   0.221   0.427   5.197 -0.8247  1.0549  1.9680
 9846SOL    HW230980   0.319   0.533   5.152  2.1406 -0.9676  3.3425
 9847SOL     OW30981   2.322   2.916   5.049  0.8279  0.3185 -0.4144
 9847SOL    HW130982   2.232   2.949   5.045  1.6637  2.8311 -0.0767
 9847SOL    HW230983   2.368   2.978   5.105  2.9236 -0.6131 -1.0027
 9848SOL     OW30984   3.819   1.712   0.943  0.0022  0.1427  0.2025
 9848SOL    HW130985   3.810   1.721   0.848  0.3942  1.6269  0.2871
 9848SOL    HW230986   3.768   1.784   0.979 -0.8061 -0.8733  1.1704
 9849SOL     OW30987   5.489   4.600   8.976  0.1813  0.1659  0.6135
 9849SOL    HW130988   5.582   4.590   8.957 -0.2133 -1.1150 -0.8453
 9849SOL    HW230989   5.467   4.687   8.941  1.2159  1.4146  2.8593
 9850SOL     OW30990   2.897   3.958   9.529  0.8618  0.0264  0.1192
 9850SOL    HW130991   2.972   3.923   9.576  1.2746  0.8802  0.1260
 9850SOL    HW230992   2.905   3.922   9.441  1.1449 -0.0809  0.1878
 9851SOL     OW30993   1.749   5.678  11.756  0.2489  0.1450  0.5364
 9851SOL    HW130994   1.778   5.590  11.779  1.5898  0.7431  1.2005
 9851SOL    HW230995   1.827   5.732  11.761 -0.7537  1.6004  1.2150
 9852SOL     OW30996   0.209   6.360   1.459 -0.1496  0.5006  0.8344
 9852SOL    HW130997   0.125   6.344   1.416  1.5801  0.6066 -2.9384
 9852SOL    HW230998   0.219   6.456   1.457  0.3713  0.4430  0.5699
 9853SOL     OW30999   0.784   4.947   7.881  0.3390  0.0828 -0.1521
 9853SOL    HW131000   0.703   4.973   7.925  0.4047  0.5895 -0.3194
 9853SOL    HW231001   0.832   4.898   7.947  0.9173  1.7548  0.7329
 9854SOL     OW31002   2.133   7.078   0.058  0.7156 -0.3912 -0.0533
 9854SOL    HW131003   2.168   7.142   0.121 -0.3714  1.5282 -1.2844
 9854SOL    HW231004   2.209   7.028   0.030  1.6318  0.4008  0.9312
 9855SOL     OW31005   2.186   1.035   2.123  0.2142 -0.2211 -0.6159
 9855SOL    HW131006   2.120   1.083   2.073 -0.5105 -1.1013 -0.5251
 9855SOL    HW231007   2.237   0.988   2.056  0.6784  0.3612 -0.6769
 9856SOL     OW31008   7.602   6.260   0.815  0.2612  0.0694 -0.0917
 9856SOL    HW131009   7.545   6.337   0.813 -0.0891 -0.1452  1.1800
 9856SOL    HW231010   7.672   6.281   0.754 -0.2175  1.0922 -0.3078
 9857SOL     OW31011   7.636   1.252   3.353  0.1359 -0.0126  0.0283
 9857SOL    HW131012   7.611   1.219   3.439 -0.8548  2.5016  0.7973
 9857SOL    HW231013   7.731   1.254   3.355  0.1204  0.9039  1.4831
 9858SOL     OW31014   2.490   2.611   9.484 -0.6318  0.5904 -0.0288
 9858SOL    HW131015   2.506   2.703   9.505  0.2453  0.7730 -1.4433
 9858SOL    HW231016   2.450   2.613   9.397 -1.0264 -0.3508  0.1262
 9859SOL     OW31017   1.139   6.666   0.119 -0.4104  0.0880 -0.2107
 9859SOL    HW131018   1.152   6.613   0.198 -2.4558  0.3180  0.3592
 9859SOL    HW231019   1.133   6.756   0.151 -0.7879  0.2293 -0.6642
 9860SOL     OW31020   3.678   5.568  12.428 -0.1796  0.1382 -0.3669
 9860SOL    HW131021   3.691   5.489  12.375 -0.3849  0.0647 -0.3085
 9860SOL    HW231022   3.764   5.610  12.430 -0.2312  0.2726 -0.9670
 9861SOL     OW31023   3.194   2.990   3.548 -0.0695  0.0547  0.2001
 9861SOL    HW131024   3.178   2.967   3.639 -2.1253 -1.7692 -0.5366
 9861SOL    HW231025   3.262   2.930   3.518  2.2646  2.1085  1.0163
 9862SOL     OW31026   6.093   3.916   3.328  0.5059 -0.2301 -0.2279
 9862SOL    HW131027   6.085   3.988   3.391  0.7392 -0.0401 -0.4123
 9862SOL    HW231028   6.083   3.959   3.242  0.5213 -0.4367 -0.3330
 9863SOL     OW31029   3.839   6.520   0.122 -0.5581  0.1494 -0.5467
 9863SOL    HW131030   3.748   6.510   0.149 -0.3717 -0.1330 -0.0011
 9863SOL    HW231031   3.866   6.603   0.161 -0.0682 -0.6162  0.8057
 9864SOL     OW31032   0.397   5.640   9.397 -0.4431 -0.1906 -0.5467
 9864SOL    HW131033   0.378   5.549   9.372  0.5579  0.1204 -2.6423
 9864SOL    HW231034   0.383   5.642   9.492 -2.9554 -1.8923 -0.7884
 9865SOL     OW31035   0.310   5.236   5.085 -0.2451  0.0110 -0.0308
 9865SOL    HW131036   0.337   5.198   5.168  2.2640  0.6878 -0.4662
 9865SOL    HW231037   0.337   5.172   5.019 -0.9993  0.0891 -0.4281
 9866SOL     OW31038   6.540   0.162   1.664 -0.0725 -0.3002  0.5359
 9866SOL    HW131039   6.514   0.254   1.660  2.7892  0.5700 -0.2108
 9866SOL    HW231040   6.458   0.114   1.660 -1.5571  2.1672 -1.2970
 9867SOL     OW31041   0.025   2.295   6.720  0.6903 -0.1970  0.2757
 9867SOL    HW131042  -0.042   2.260   6.778  0.6020  1.0286  0.9336
 9867SOL    HW231043  -0.024   2.346   6.654  0.9221  0.1584  0.3739
 9868SOL     OW31044   6.071   7.886   6.644  0.1919 -0.3685  0.3565
 9868SOL    HW131045   6.110   7.961   6.689  0.5549  1.0717 -2.1440
 9868SOL    HW231046   5.978   7.908   6.638  0.0633 -0.7867  0.8462
 9869SOL     OW31047   4.115   3.840  11.822  0.4238 -0.0576  0.0005
 9869SOL    HW131048   4.210   3.849  11.809  0.2712  0.3876 -0.8277
 9869SOL    HW231049   4.088   3.775  11.757  0.1082  0.0458  0.0304
 9870SOL     OW31050   7.290   1.090   1.583 -0.0975 -0.2085 -0.0374
 9870SOL    HW131051   7.366   1.148   1.586  0.7757 -1.3009 -0.5601
 9870SOL    HW231052   7.232   1.130   1.517  0.6155 -0.0774 -0.5928
 9871SOL     OW31053   7.092   6.976  10.391  0.5750  0.1148 -0.1486
 9871SOL    HW131054   7.051   6.969  10.305  0.6542 -0.7094 -0.1295
 9871SOL    HW231055   7.060   6.900  10.439  2.5147 -0.8938 -0.3227
 9872SOL     OW31056   3.675   0.833  11.811  0.3404 -0.0737 -0.1292
 9872SOL    HW131057   3.697   0.763  11.750  1.3462  0.1777 -0.0687
 9872SOL    HW231058   3.600   0.878  11.771  2.4005  1.5661 -2.4151
 9873SOL     OW31059   5.121   5.306   5.733 -0.7000  0.2634 -0.2771
 9873SOL    HW131060   5.130   5.379   5.671  0.8460 -0.0658 -0.4814
 9873SOL    HW231061   5.096   5.231   5.679  0.2605  0.0673 -0.4696
 9874SOL     OW31062   3.110   0.957   4.287  0.1759 -0.1290 -0.2538
 9874SOL    HW131063   3.016   0.949   4.268  0.0277  0.1015  0.3528
 9874SOL    HW231064   3.114   1.021   4.359  0.7272 -0.7591  0.2908
 9875SOL     OW31065   1.716   5.908   0.843  0.2004  0.4105 -0.7892
 9875SOL    HW131066   1.741   5.999   0.827  0.8006  0.8394  2.0784
 9875SOL    HW231067   1.626   5.914   0.876  0.2135 -0.0236 -0.6786
 9876SOL     OW31068   3.544   2.160   2.501  0.2220 -0.0831  0.4936
 9876SOL    HW131069   3.630   2.200   2.513  0.0178  0.3956  0.3781
 9876SOL    HW231070   3.482   2.232   2.509 -0.0319  0.0602 -1.8524
 9877SOL     OW31071   7.079   6.116   7.525 -0.2284 -0.1015  0.1046
 9877SOL    HW131072   7.049   6.115   7.435 -2.7567 -0.0313  0.8633
 9877SOL    HW231073   7.132   6.196   7.532 -0.0375 -0.0914 -1.2899
 9878SOL     OW31074   6.155   4.668   5.927  0.4516  0.4962  0.2365
 9878SOL    HW131075   6.078   4.717   5.897 -1.3543 -1.6416  1.0434
 9878SOL    HW231076   6.131   4.639   6.015  0.6691 -3.0299 -0.6949
 9879SOL     OW31077   1.402   4.624   5.417  0.0035  0.0543 -0.0973
 9879SOL    HW131078   1.345   4.607   5.492 -1.5072  0.5944 -1.0669
 9879SOL    HW231079   1.491   4.624   5.453 -0.7390  1.3414  1.8824
 9880SOL     OW31080   6.847   7.928   4.657  0.0005  0.4810 -0.0241
 9880SOL    HW131081   6.929   7.884   4.682 -1.4377 -2.2368  0.3278
 9880SOL    HW231082   6.815   7.967   4.738  0.5890  0.9233 -0.0030
 9881SOL     OW31083   3.607   5.476  12.047  0.2957 -0.5788  0.4270
 9881SOL    HW131084   3.591   5.556  11.997 -1.6359 -1.9768 -1.3413
 9881SOL    HW231085   3.570   5.494  12.133  1.2502  0.9227  0.5583
 9882SOL     OW31086   2.605   0.528   2.432 -0.6335 -0.0592 -0.1923
 9882SOL    HW131087   2.685   0.533   2.484  0.2096  0.9373 -1.5436
 9882SOL    HW231088   2.622   0.460   2.367 -1.6492 -1.2277  0.7017
 9883SOL     OW31089   4.269   7.808   6.242 -0.0494  0.4121 -0.0286
 9883SOL    HW131090   4.278   7.819   6.336 -0.2682 -0.8479  0.1642
 9883SOL    HW231091   4.282   7.895   6.205 -0.6697  1.0469  1.2130
 9884SOL     OW31092   2.082   0.496  10.614  0.1576 -0.1970  0.0557
 9884SOL    HW131093   2.100   0.480  10.706  0.2716 -0.9100 -0.0836
 9884SOL    HW231094   1.997   0.456  10.598  0.1611 -0.1245 -0.1611
 9885SOL     OW31095   6.754   0.011   6.188 -0.6087  0.3642 -0.0819
 9885SOL    HW131096   6.822   0.042   6.249 -0.7536  1.2160 -0.3430
 9885SOL    HW231097   6.759   0.071   6.114 -2.0746  0.8288  0.1745
 9886SOL     OW31098   7.061   0.716  11.931  0.0901  0.0797 -0.0830
 9886SOL    HW131099   7.040   0.672  12.013 -0.9599 -1.3032 -1.0384
 9886SOL    HW231100   7.057   0.809  11.952 -1.5875 -0.2130  1.1244
 9887SOL     OW31101   5.882   7.830   1.340  0.6531  0.2302  1.1000
 9887SOL    HW131102   5.813   7.822   1.406  0.5820  0.0428  1.0012
 9887SOL    HW231103   5.839   7.812   1.257  0.1865  2.7589  0.7098
 9888SOL     OW31104   7.973   1.361  10.851 -0.1313 -0.1698  0.4650
 9888SOL    HW131105   7.952   1.401  10.767  2.7228 -0.8965 -0.7515
 9888SOL    HW231106   7.995   1.434  10.908  1.1488  0.2647 -0.5144
 9889SOL     OW31107   7.260   0.146   3.715  0.1289 -0.0129  0.0584
 9889SOL    HW131108   7.250   0.162   3.809 -0.1036  0.9479 -0.1251
 9889SOL    HW231109   7.260   0.233   3.675 -0.2623 -0.4294 -0.8861
 9890SOL     OW31110   0.771   6.452   1.949 -0.1767  0.9182  0.1480
 9890SOL    HW131111   0.766   6.358   1.933  0.0724  1.1315 -1.2213
 9890SOL    HW231112   0.693   6.471   2.001 -0.2943 -0.0177  0.3319
 9891SOL     OW31113   7.488   1.053  10.656 -0.4399 -0.0003  0.0243
 9891SOL    HW131114   7.468   1.024  10.567  0.2851 -0.1447 -0.0991
 9891SOL    HW231115   7.521   1.143  10.644 -0.4121  0.0065  0.1554
 9892SOL     OW31116   6.038   5.065   0.069  0.1837  0.0546  0.0063
 9892SOL    HW131117   6.058   4.992   0.128  0.1523 -1.0562 -1.3195
 9892SOL    HW231118   5.999   5.024  -0.008  1.4345  1.3234 -1.3769
 9893SOL     OW31119   4.576   4.115  11.575  0.0253  0.1879  0.2847
 9893SOL    HW131120   4.488   4.092  11.605  0.6406 -0.8959  1.3571
 9893SOL    HW231121   4.566   4.201  11.534 -1.2918  0.6699  1.5340
 9894SOL     OW31122   4.005   7.156   4.642  0.7437 -0.0612 -0.3898
 9894SOL    HW131123   4.014   7.079   4.698  2.2163  0.6517  0.4199
 9894SOL    HW231124   3.932   7.135   4.584  0.5213 -1.6821  0.4124
 9895SOL     OW31125   5.918   5.692   3.232 -0.0052  0.1460 -0.0481
 9895SOL    HW131126   5.892   5.784   3.229  0.2022  0.2024 -0.1789
 9895SOL    HW231127   5.980   5.687   3.305 -0.8703 -0.1195  0.6860
 9896SOL     OW31128   2.239   5.631   7.258  0.0239 -0.0178  0.0093
 9896SOL    HW131129   2.303   5.679   7.311 -0.4256  1.4764 -0.7516
 9896SOL    HW231130   2.162   5.687   7.256  0.4633  0.6623 -3.2563
 9897SOL     OW31131   2.258   1.622   8.186 -0.2291 -0.3056  0.3253
 9897SOL    HW131132   2.348   1.650   8.171  0.0945 -0.0956  2.4293
 9897SOL    HW231133   2.263   1.527   8.198 -0.3848 -0.3624 -0.0105
 9898SOL     OW31134   3.840   6.450   1.439 -0.1593 -0.4725  0.2176
 9898SOL    HW131135   3.860   6.446   1.533  0.7841 -0.2771  0.0370
 9898SOL    HW231136   3.748   6.477   1.435  0.2706  1.2471  1.0634
 9899SOL     OW31137   6.721   1.040   8.503  0.4254  0.5958 -0.1338
 9899SOL    HW131138   6.807   1.036   8.544 -0.4016  1.2902  1.7974
 9899SOL    HW231139   6.716   1.128   8.467 -0.8069  2.0271  3.1261
 9900SOL     OW31140   5.420   4.100   7.881 -0.2361 -0.2391  0.6577
 9900SOL    HW131141   5.417   4.159   7.957  2.0859 -0.4515  0.9842
 9900SOL    HW231142   5.333   4.060   7.879 -0.9168  1.0311  2.1751
 9901SOL     OW31143   7.423   3.750   2.832  0.3862 -0.6051  0.1068
 9901SOL    HW131144   7.378   3.833   2.818 -0.1489 -0.5046  2.1290
 9901SOL    HW231145   7.388   3.691   2.765  0.8214  0.7830 -1.4003
 9902SOL     OW31146   3.884   0.858   5.572  0.4359  0.1173  0.6074
 9902SOL    HW131147   3.965   0.832   5.616 -0.6839 -0.0879  2.6351
 9902SOL    HW231148   3.867   0.786   5.511  0.6624 -0.9072  1.7064
 9903SOL     OW31149   0.870   4.828   4.942  0.6176 -0.2301 -0.2409
 9903SOL    HW131150   0.846   4.748   4.895  1.5990 -0.0111 -1.1680
 9903SOL    HW231151   0.795   4.847   4.998 -0.3982 -0.7687 -1.3819
 9904SOL     OW31152   5.622   0.081   0.702  0.1074  0.2225 -0.2693
 9904SOL    HW131153   5.559   0.009   0.698  1.6358 -1.1891  0.3071
 9904SOL    HW231154   5.617   0.121   0.615 -1.3813 -0.0133 -0.3223
 9905SOL     OW31155   7.279   1.789   9.570 -0.3832 -0.1058  0.5942
 9905SOL    HW131156   7.289   1.708   9.620  0.8957 -0.7541 -0.6245
 9905SOL    HW231157   7.361   1.837   9.584 -0.3161  0.0496 -0.2418
 9906SOL     OW31158   2.489   5.635   5.279 -0.3088 -0.0130 -0.4236
 9906SOL    HW131159   2.570   5.626   5.330 -0.5028 -0.0687 -0.1206
 9906SOL    HW231160   2.429   5.572   5.318 -1.0875  1.2544  0.5367
 9907SOL     OW31161   4.365   0.030   0.112  0.0333 -0.5361 -0.4800
 9907SOL    HW131162   4.320   0.012   0.194 -0.5097  0.2897 -0.5865
 9907SOL    HW231163   4.295   0.039   0.047  0.3636  0.3777 -0.7222
 9908SOL     OW31164   0.989   2.481  10.448  0.2968 -0.0927  0.2624
 9908SOL    HW131165   1.000   2.424  10.525 -2.8461  0.4968  1.2670
 9908SOL    HW231166   1.029   2.564  10.475 -0.2377 -0.0753  1.0391
 9909SOL     OW31167   6.483   1.216   7.291  0.5057  0.5349  0.6162
 9909SOL    HW131168   6.397   1.173   7.293 -0.2682  1.8917 -1.2001
 9909SOL    HW231169   6.544   1.145   7.309 -0.8490 -0.9602 -0.3271
 9910SOL     OW31170   7.323   5.584  11.970  0.0956  0.3908 -0.0173
 9910SOL    HW131171   7.354   5.542  12.050  1.8380  2.1245  0.2838
 9910SOL    HW231172   7.396   5.639  11.941 -1.1080  1.1380 -1.8573
 9911SOL     OW31173   1.497   3.893   4.463  0.5336 -0.1130  0.5568
 9911SOL    HW131174   1.537   3.891   4.550 -0.9985  0.3505  1.3062
 9911SOL    HW231175   1.447   3.975   4.461  1.5831  0.5477 -1.2708
 9912SOL     OW31176   5.450   6.881   6.569  0.0602  0.1385  0.3029
 9912SOL    HW131177   5.541   6.903   6.549  0.5476 -2.1601 -0.2657
 9912SOL    HW231178   5.414   6.850   6.486 -1.4521  1.5074  0.3817
 9913SOL     OW31179   4.869   5.139   4.577 -0.1759 -0.1895  0.4223
 9913SOL    HW131180   4.844   5.067   4.635  0.9329  0.4116  1.7088
 9913SOL    HW231181   4.846   5.218   4.626  0.7491  0.3292  0.0552
 9914SOL     OW31182   0.018   4.232   0.256 -0.2333  0.3119 -0.4240
 9914SOL    HW131183   0.106   4.222   0.219 -0.1939 -1.5980  0.0730
 9914SOL    HW231184  -0.039   4.181   0.198 -0.4627 -1.1605  1.0298
 9915SOL     OW31185   1.710   5.624   4.484 -0.8332 -0.5545  0.1614
 9915SOL    HW131186   1.734   5.533   4.472 -1.6391 -0.7234 -0.2265
 9915SOL    HW231187   1.626   5.633   4.439 -0.8172  0.3479  0.2914
 9916SOL     OW31188   1.239   6.566  11.337  0.0813 -0.4538 -0.3394
 9916SOL    HW131189   1.169   6.508  11.364 -0.2910  0.2620  0.2715
 9916SOL    HW231190   1.285   6.519  11.268 -0.7792 -1.0739 -0.4924
 9917SOL     OW31191   7.256   4.470   7.976  0.3760 -0.3048  0.2475
 9917SOL    HW131192   7.202   4.497   8.050  0.5947  0.2912  0.1972
 9917SOL    HW231193   7.344   4.501   7.999  0.4334 -0.0662 -0.2876
 9918SOL     OW31194   6.623   3.565  12.264 -0.3150 -0.0196 -0.2211
 9918SOL    HW131195   6.546   3.511  12.281  0.2850 -0.1368  2.6589
 9918SOL    HW231196   6.614   3.640  12.323  2.3300 -0.6834  1.1964
 9919SOL     OW31197   3.932   5.617   3.460 -0.1092  0.3052  0.2994
 9919SOL    HW131198   3.851   5.609   3.509 -0.2009 -0.3800  0.0544
 9919SOL    HW231199   3.937   5.709   3.435 -1.2958  0.1629 -0.5153
 9920SOL     OW31200   7.126   1.219  12.072  0.3728 -0.2131  0.3676
 9920SOL    HW131201   7.196   1.270  12.111  0.4228 -1.2278  1.6831
 9920SOL    HW231202   7.080   1.180  12.146 -1.7081  0.5546 -0.4446
 9921SOL     OW31203   0.567   0.260  10.849  0.0843  0.6446 -0.7232
 9921SOL    HW131204   0.587   0.351  10.828  0.8636  0.3540 -1.3114
 9921SOL    HW231205   0.644   0.231  10.900  0.2534  0.0681 -1.2996
 9922SOL     OW31206   6.184   2.608   7.995 -0.4557  0.2187  0.5785
 9922SOL    HW131207   6.169   2.701   7.977 -0.4167  0.3397  1.1469
 9922SOL    HW231208   6.182   2.566   7.909  0.4696  0.8864  0.2130
 9923SOL     OW31209   7.406   7.064   4.242  0.1863  0.7760 -0.8729
 9923SOL    HW131210   7.495   7.064   4.277  0.7459 -1.0467 -2.1286
 9923SOL    HW231211   7.358   7.005   4.299  0.1825  0.6083 -1.0464
 9924SOL     OW31212   6.607   2.122   7.670  0.1381  1.2581  0.8011
 9924SOL    HW131213   6.649   2.109   7.755 -1.1689  1.3160  1.4811
 9924SOL    HW231214   6.521   2.158   7.691 -0.0318  1.7232 -0.5775
 9925SOL     OW31215   0.912   2.441   0.261  0.1508 -0.1065 -0.1881
 9925SOL    HW131216   0.981   2.429   0.326 -0.8615  1.1438  1.1989
 9925SOL    HW231217   0.838   2.390   0.295 -0.3050  0.3398 -0.4918
 9926SOL     OW31218   3.988   4.537  12.255 -0.2183 -0.1410 -0.6196
 9926SOL    HW131219   4.014   4.456  12.299  0.8538  0.2074 -0.5783
 9926SOL    HW231220   3.907   4.563  12.298  0.7900  0.1783  1.1629
 9927SOL     OW31221   1.862   3.975   7.571  0.5438  0.0009 -0.2062
 9927SOL    HW131222   1.846   4.036   7.499  0.6158  0.4822  0.1791
 9927SOL    HW231223   1.777   3.969   7.616 -0.1152 -1.9485 -1.5497
 9928SOL     OW31224   0.999   0.039  10.551  0.0656 -0.0957 -0.7808
 9928SOL    HW131225   1.009   0.104  10.621 -0.5000 -1.3092  0.4694
 9928SOL    HW231226   0.944   0.083  10.486 -1.2631  0.3376  0.5579
 9929SOL     OW31227   7.773   4.813   9.584  0.1956 -0.0200 -0.0525
 9929SOL    HW131228   7.722   4.773   9.514  0.8105 -1.0908  0.0904
 9929SOL    HW231229   7.852   4.760   9.589  0.0767 -0.0904  1.5743
 9930SOL     OW31230   7.262   7.932  12.296 -0.5009 -0.1833  0.2491
 9930SOL    HW131231   7.225   8.020  12.290  1.1333  0.5078 -0.2206
 9930SOL    HW231232   7.217   7.892  12.370 -1.1829  1.0829  0.5455
 9931SOL     OW31233   6.382   5.486   5.531 -0.3460 -0.2309 -0.0710
 9931SOL    HW131234   6.403   5.566   5.579  0.7589 -0.2123 -0.5632
 9931SOL    HW231235   6.287   5.486   5.525 -0.3691  0.9588  0.0808
 9932SOL     OW31236   6.154   3.481   0.027 -0.1884 -0.5040 -0.3858
 9932SOL    HW131237   6.091   3.551   0.010 -2.0115 -1.2104  2.7385
 9932SOL    HW231238   6.212   3.516   0.094 -0.3612 -1.5123  0.3174
 9933SOL     OW31239   2.804   1.099   8.960  0.7608 -0.4221 -0.4141
 9933SOL    HW131240   2.865   1.036   8.921 -1.1182 -1.6185 -1.6016
 9933SOL    HW231241   2.754   1.048   9.023  0.6521  0.4070  0.1819
 9934SOL     OW31242   2.011   5.189  10.413 -0.3423  0.1527  0.3689
 9934SOL    HW131243   2.039   5.128  10.344  0.8971  0.7896  0.2649
 9934SOL    HW231244   1.916   5.188  10.409 -0.3290 -1.1815 -0.1455
 9935SOL     OW31245   4.433   6.219   4.475  0.1705  0.3867 -0.1552
 9935SOL    HW131246   4.506   6.189   4.528  0.4704 -0.0666 -0.8105
 9935SOL    HW231247   4.437   6.166   4.395  0.9576  2.4014 -1.5405
 9936SOL     OW31248   5.701   0.837   1.234 -0.0898  0.3723  0.2413
 9936SOL    HW131249   5.793   0.858   1.219 -1.2150  4.2839 -2.8381
 9936SOL    HW231250   5.665   0.822   1.146 -2.5068 -0.6411  1.3117
 9937SOL     OW31251   0.400   6.224  11.855 -0.1427  0.1693  0.1855
 9937SOL    HW131252   0.309   6.243  11.875 -0.8568 -1.6360 -1.1952
 9937SOL    HW231253   0.439   6.310  11.837 -2.0011  0.8272 -0.9244
 9938SOL     OW31254   6.028   5.729   8.531 -0.3043 -0.5570  0.4069
 9938SOL    HW131255   5.986   5.649   8.498 -0.5418 -0.1114 -0.3938
 9938SOL    HW231256   6.091   5.753   8.463  0.7784 -0.8272  1.2783
 9939SOL     OW31257   3.979   5.983   4.956 -0.2183 -0.1477  0.1041
 9939SOL    HW131258   4.068   6.009   4.931 -0.0610 -1.7652 -1.1596
 9939SOL    HW231259   3.967   6.021   5.043  0.2564  3.3894 -1.2057
 9940SOL     OW31260   5.671   0.108   2.238 -0.1701  0.0163  0.2534
 9940SOL    HW131261   5.690   0.057   2.317 -3.3352 -1.6142  0.1204
 9940SOL    HW231262   5.581   0.139   2.250 -1.3251 -1.4801 -3.2269
 9941SOL     OW31263   2.460   0.445   5.865  0.3528  0.1905 -0.2639
 9941SOL    HW131264   2.445   0.444   5.959 -0.8215  0.9774 -0.4149
 9941SOL    HW231265   2.495   0.532   5.847 -1.1240  0.7111 -0.7586
 9942SOL     OW31266   1.201   2.384   2.998 -0.2171 -0.0703 -0.3397
 9942SOL    HW131267   1.212   2.290   2.983  1.6715 -0.4056  2.4190
 9942SOL    HW231268   1.287   2.422   2.981 -0.2984  0.7445  0.8769
 9943SOL     OW31269   5.629   0.022   9.682  0.0608  0.0560 -0.4589
 9943SOL    HW131270   5.714   0.063   9.665  1.1341 -2.8420 -3.0262
 9943SOL    HW231271   5.569   0.066   9.621  0.4690 -0.0640 -0.9543
 9944SOL     OW31272   1.774   2.170   9.614  0.5117  0.2989 -0.1609
 9944SOL    HW131273   1.797   2.119   9.691  0.9828  0.8955  0.0957
 9944SOL    HW231274   1.839   2.146   9.549  0.8600  0.7281  0.0280
 9945SOL     OW31275   1.932   1.602   9.901 -0.2365 -0.0271  0.2885
 9945SOL    HW131276   1.922   1.682   9.848 -1.7012 -1.4891 -1.8141
 9945SOL    HW231277   1.940   1.634   9.991  0.2318  2.5165 -0.5757
 9946SOL     OW31278   6.128   4.029   7.829 -0.6642  0.1282 -0.9149
 9946SOL    HW131279   6.162   3.961   7.771  1.6879  0.1782  0.2912
 9946SOL    HW231280   6.150   3.999   7.917 -1.4355  1.4856 -0.2159
 9947SOL     OW31281   6.365   2.217   7.120  0.0825 -0.3302 -0.1132
 9947SOL    HW131282   6.310   2.242   7.195 -4.5997 -0.6092 -3.0006
 9947SOL    HW231283   6.405   2.298   7.091 -0.0429  0.2451  1.2487
 9948SOL     OW31284   7.589   3.138   4.795  0.1385 -0.4079 -0.2911
 9948SOL    HW131285   7.521   3.072   4.787 -0.0569 -0.0151 -2.5679
 9948SOL    HW231286   7.646   3.123   4.719  0.0720  1.9770 -0.8958
 9949SOL     OW31287   2.425   0.223   9.635  0.2105 -0.5168  0.0946
 9949SOL    HW131288   2.470   0.301   9.665 -1.5428  0.6591 -0.1701
 9949SOL    HW231289   2.399   0.244   9.545  0.9165 -1.9654 -0.4774
 9950SOL     OW31290   3.950   6.360   4.005 -0.3936 -0.3047  0.6691
 9950SOL    HW131291   3.927   6.367   4.098 -0.6988 -0.4163  0.6010
 9950SOL    HW231292   3.896   6.425   3.962  0.6071  0.5789  0.7151
 9951SOL     OW31293   3.558   4.607  12.087 -0.6615  0.0593 -0.4701
 9951SOL    HW131294   3.638   4.625  12.037 -0.5781 -1.6437 -1.0416
 9951SOL    HW231295   3.558   4.671  12.158  1.1728  0.1714 -0.5240
 9952SOL     OW31296   2.307   5.250   6.246 -0.0960 -0.5823 -0.6184
 9952SOL    HW131297   2.349   5.314   6.303  0.3047 -1.2745 -0.1074
 9952SOL    HW231298   2.216   5.247   6.276 -0.4725  0.7207 -1.5455
 9953SOL     OW31299   4.550   0.188   5.242 -0.1557 -0.2793 -0.3660
 9953SOL    HW131300   4.631   0.139   5.229 -0.0648  0.0540 -1.1030
 9953SOL    HW231301   4.530   0.177   5.335 -0.1754 -1.7561 -0.5252
 9954SOL     OW31302   2.373   5.131   9.979 -0.8103  0.4435 -0.0148
 9954SOL    HW131303   2.426   5.055  10.002 -1.3608  0.3635  1.0588
 9954SOL    HW231304   2.420   5.171   9.906 -0.2029 -0.5915 -0.2158
 9955SOL     OW31305   0.292   4.722   1.372 -0.0083 -0.1130  0.4792
 9955SOL    HW131306   0.266   4.631   1.356 -0.7120 -0.0249  1.0944
 9955SOL    HW231307   0.347   4.744   1.296 -0.6741 -0.7168 -0.1986
 9956SOL     OW31308   5.883   1.836   4.303  0.4195  0.1777 -0.0163
 9956SOL    HW131309   5.816   1.813   4.238  0.5532  1.7548 -0.7451
 9956SOL    HW231310   5.896   1.755   4.353 -3.3213  0.1823  1.3656
 9957SOL     OW31311   0.569   0.309   3.076  0.3811  0.1923 -0.2451
 9957SOL    HW131312   0.635   0.315   3.146 -1.1026 -1.1032  1.3403
 9957SOL    HW231313   0.583   0.223   3.038  0.2133  0.3002 -0.5551
 9958SOL     OW31314   2.697   7.332   8.253  0.2173  0.1522 -0.4841
 9958SOL    HW131315   2.720   7.393   8.323  0.6597  3.0210 -2.9245
 9958SOL    HW231316   2.672   7.252   8.299  3.3274  0.8047  2.8130
 9959SOL     OW31317   7.719   7.859   2.872 -0.0854  0.2926 -0.0755
 9959SOL    HW131318   7.701   7.766   2.877  1.3804  0.0217  0.7360
 9959SOL    HW231319   7.635   7.901   2.889 -0.7583 -0.8675 -0.4304
 9960SOL     OW31320   5.889   0.205   0.783  0.2374 -0.1947  0.2577
 9960SOL    HW131321   5.822   0.155   0.736  1.0207 -1.8217  0.7769
 9960SOL    HW231322   5.895   0.288   0.736 -1.4651 -0.3907 -0.3546
 9961SOL     OW31323   5.278   3.524  10.079  0.0332 -0.6183 -0.4570
 9961SOL    HW131324   5.275   3.509   9.984  2.4691 -0.1740 -0.6747
 9961SOL    HW231325   5.272   3.437  10.117 -1.0200 -0.7989 -1.0044
 9962SOL     OW31326   6.618   0.527   3.578 -0.1006  0.0100  0.2338
 9962SOL    HW131327   6.572   0.456   3.534  0.2501  0.1264 -0.3313
 9962SOL    HW231328   6.549   0.588   3.605 -0.4202 -0.6250  0.8898
 9963SOL     OW31329   1.247   2.193   1.787 -0.0965  0.3191 -0.1423
 9963SOL    HW131330   1.196   2.199   1.706  0.7991  0.5884 -0.7127
 9963SOL    HW231331   1.251   2.100   1.806  0.5596  0.1480 -1.0152
 9964SOL     OW31332   5.402   1.887  10.090  0.4133 -0.1362  0.8054
 9964SOL    HW131333   5.440   1.937  10.018  0.5217  0.0339  0.9802
 9964SOL    HW231334   5.311   1.918  10.096 -0.8762 -2.8847 -1.8092
 9965SOL     OW31335   5.148   0.925   8.752 -0.0918 -0.3193  0.0443
 9965SOL    HW131336   5.219   0.988   8.760  1.5181 -2.0062 -0.2317
 9965SOL    HW231337   5.092   0.961   8.684 -0.5080  1.9113  1.4498
 9966SOL     OW31338   4.443   5.870   5.375  0.5660  0.4203 -0.0323
 9966SOL    HW131339   4.433   5.781   5.340  0.3224  0.1674  0.6687
 9966SOL    HW231340   4.520   5.905   5.330  1.0564 -0.3800  0.1602
 9967SOL     OW31341   4.702   7.241   2.506 -0.0641  0.2664 -0.0904
 9967SOL    HW131342   4.612   7.251   2.535  0.1762 -0.9726  1.1846
 9967SOL    HW231343   4.721   7.322   2.459 -1.8755  0.4712 -0.5451
 9968SOL     OW31344   3.601   2.220   2.852  0.4279  0.4941  0.1587
 9968SOL    HW131345   3.558   2.207   2.937 -1.2482 -3.3226 -1.0404
 9968SOL    HW231346   3.558   2.296   2.814 -2.3764 -0.6725  0.7884
 9969SOL     OW31347   5.692   4.346   4.155  0.2943  0.0511  0.2835
 9969SOL    HW131348   5.765   4.381   4.103  1.4742 -3.3868 -0.6478
 9969SOL    HW231349   5.621   4.336   4.092 -0.0214  0.6562  0.5347
 9970SOL     OW31350   0.898   4.807  12.221  0.0459  0.2288  0.1002
 9970SOL    HW131351   0.842   4.789  12.297 -0.5900  1.1476 -0.1338
 9970SOL    HW231352   0.885   4.732  12.163 -0.4054  0.1083  0.3530
 9971SOL     OW31353   4.846   1.544  11.792 -0.3399  0.8663 -0.8121
 9971SOL    HW131354   4.914   1.580  11.849 -1.1345 -1.1824  1.5925
 9971SOL    HW231355   4.782   1.615  11.784 -0.2990  1.1574  1.0528
 9972SOL     OW31356   4.672   7.584   0.992 -0.7896  0.5180 -0.0440
 9972SOL    HW131357   4.592   7.564   1.041 -1.3281  2.0894 -0.2339
 9972SOL    HW231358   4.660   7.673   0.961  1.2703  0.9938  0.3675
 9973SOL     OW31359   1.893   1.887   5.264 -0.5593  0.1946  0.2920
 9973SOL    HW131360   1.884   1.826   5.191 -1.0257 -1.0366  1.3350
 9973SOL    HW231361   1.984   1.875   5.293 -0.4215  0.5652  0.0115
 9974SOL     OW31362   7.463   7.032   7.557  0.3697 -0.5649 -0.1730
 9974SOL    HW131363   7.453   7.094   7.485  0.3341  1.3276  1.4045
 9974SOL    HW231364   7.386   7.045   7.611  1.2479 -0.6719  1.1502
 9975SOL     OW31365   4.017   4.361   0.028  0.6149 -0.4280 -0.0796
 9975SOL    HW131366   3.926   4.337   0.011  0.2167  0.5608  0.5530
 9975SOL    HW231367   4.062   4.277   0.039 -0.4435 -0.9135  0.7507
 9976SOL     OW31368   7.771   0.916   9.335  0.0816  0.0188  0.1038
 9976SOL    HW131369   7.774   1.011   9.322  0.2184 -0.0155 -0.1207
 9976SOL    HW231370   7.862   0.891   9.347  0.0615 -0.1052  0.0011
 9977SOL     OW31371   2.649   2.935   7.150 -0.8500  0.0162 -0.0979
 9977SOL    HW131372   2.651   2.977   7.064 -1.8417  0.7505  0.2120
 9977SOL    HW231373   2.665   2.843   7.132 -0.2966  0.2711 -0.9869
 9978SOL     OW31374   7.913   0.347   2.051  0.4935  0.0418  0.4023
 9978SOL    HW131375   7.820   0.363   2.036  0.2152 -1.7158  0.0623
 9978SOL    HW231376   7.922   0.345   2.146 -0.2716 -2.0070  0.4693
 9979SOL     OW31377   5.941   0.377   0.194 -0.4538  0.5220 -0.0021
 9979SOL    HW131378   6.023   0.426   0.194  0.1517 -0.4324 -1.3674
 9979SOL    HW231379   5.885   0.424   0.132  0.1289 -0.4927 -1.3159
 9980SOL     OW31380   3.870   2.593   2.299  0.1774  0.2403 -0.0659
 9980SOL    HW131381   3.777   2.573   2.289 -0.1095  0.9340  1.0169
 9980SOL    HW231382   3.915   2.509   2.290 -0.5769 -0.1456 -0.2677
 9981SOL     OW31383   3.072   2.737   0.934 -0.5491  0.5619  0.3515
 9981SOL    HW131384   3.003   2.775   0.988 -0.9087  1.6802 -0.8463
 9981SOL    HW231385   3.039   2.744   0.844  1.0619  0.9936 -0.2297
 9982SOL     OW31386   2.039   7.853  11.487 -0.3721  0.1664  0.7192
 9982SOL    HW131387   1.989   7.808  11.420 -0.1013  1.0398 -0.0870
 9982SOL    HW231388   2.033   7.796  11.564 -1.9043 -0.1358  0.3967
 9983SOL     OW31389   6.177   3.697   2.378  0.0961 -0.1904 -0.7929
 9983SOL    HW131390   6.104   3.667   2.433  1.2092 -0.5024  0.5760
 9983SOL    HW231391   6.228   3.618   2.362  0.0595  0.0000 -1.8731
 9984SOL     OW31392   5.794   4.088   3.805  0.6839  0.1972  0.1274
 9984SOL    HW131393   5.703   4.068   3.827 -0.1104  0.4943 -2.5272
 9984SOL    HW231394   5.840   4.085   3.889 -1.8626  0.6655  1.6672
 9985SOL     OW31395   0.217   5.746   8.045 -0.6847 -0.1787 -0.2529
 9985SOL    HW131396   0.122   5.756   8.047 -0.4487  2.8961  0.0892
 9985SOL    HW231397   0.240   5.719   8.134 -1.1406  0.7777  0.1726
 9986SOL     OW31398   1.329   6.377  10.566 -0.4288  0.2020  0.5764
 9986SOL    HW131399   1.345   6.346  10.477  0.2131  0.9148  0.4331
 9986SOL    HW231400   1.413   6.412  10.595 -0.4737 -0.5608  1.6884
 9987SOL     OW31401   3.316   0.275   1.723  0.2182  0.0269  0.5727
 9987SOL    HW131402   3.304   0.260   1.816  1.6056  1.8438  1.1017
 9987SOL    HW231403   3.410   0.292   1.713  0.4475 -1.9487 -1.4699
 9988SOL     OW31404   3.460   3.326  12.053 -0.4982 -0.0812  0.1847
 9988SOL    HW131405   3.472   3.403  12.108 -0.7789 -1.2010  1.9101
 9988SOL    HW231406   3.393   3.351  11.990  0.4208  1.5176 -0.2067
 9989SOL     OW31407   2.637   3.222   6.451 -0.4780  0.6950 -0.4946
 9989SOL    HW131408   2.585   3.246   6.527  1.4555 -0.5874  1.3141
 9989SOL    HW231409   2.724   3.257   6.468  0.4197 -1.0195 -1.3426
 9990SOL     OW31410   2.073   6.207   1.307  0.2412  0.3308 -0.0336
 9990SOL    HW131411   1.987   6.164   1.303 -0.3707  1.4588  0.5015
 9990SOL    HW231412   2.122   6.169   1.234 -0.1162 -1.5569  0.6748
 9991SOL     OW31413   0.671   6.672   3.523 -0.2262 -0.2236  0.0521
 9991SOL    HW131414   0.582   6.637   3.521  0.7385 -3.0841  0.9136
 9991SOL    HW231415   0.717   6.615   3.586  1.9077  1.9505  0.6006
 9992SOL     OW31416   0.706   4.315  10.243  0.2774 -0.1719  0.2091
 9992SOL    HW131417   0.784   4.259  10.246  0.0785 -0.8112 -2.8301
 9992SOL    HW231418   0.664   4.302  10.328  1.8144 -2.3215  0.7390
 9993SOL     OW31419   4.346   1.499   4.552  0.2499 -0.4462 -0.2816
 9993SOL    HW131420   4.391   1.464   4.475 -0.9287 -1.9260 -0.3505
 9993SOL    HW231421   4.301   1.577   4.521  1.7854  0.4056 -0.4738
 9994SOL     OW31422   6.755   4.905  10.351  1.0002  0.3651  0.4599
 9994SOL    HW131423   6.759   4.987  10.401 -2.2506  0.0545  1.4972
 9994SOL    HW231424   6.724   4.841  10.415 -0.4455 -0.7252 -1.2680
 9995SOL     OW31425   7.543   3.002   5.592 -0.3253 -0.5613  0.1174
 9995SOL    HW131426   7.459   2.965   5.621  0.0337 -0.7718  0.8928
 9995SOL    HW231427   7.541   2.992   5.497 -1.0864 -0.7660  0.1433
 9996SOL     OW31428   5.440   7.435  10.188  0.0429 -0.4892  0.3556
 9996SOL    HW131429   5.413   7.476  10.106  0.7286 -2.0571 -0.6982
 9996SOL    HW231430   5.491   7.358  10.161 -0.7666 -1.7485  2.2368
 9997SOL     OW31431   5.089   0.964   0.249  0.6952 -0.1147 -0.7150
 9997SOL    HW131432   5.108   0.902   0.178 -0.9403  0.1120 -1.3898
 9997SOL    HW231433   5.022   0.920   0.302 -1.3042  1.4086 -1.8040
 9998SOL     OW31434   2.853   2.674  10.170  1.0919  0.4946  0.0953
 9998SOL    HW131435   2.841   2.691  10.263  1.1547 -1.4570  0.5006
 9998SOL    HW231436   2.944   2.647  10.162  1.4835  1.9569 -0.7851
 9999SOL     OW31437   5.124   5.427   2.136  0.1238  0.0060 -0.4535
 9999SOL    HW131438   5.161   5.495   2.192  0.2070 -1.1579  0.9424
 9999SOL    HW231439   5.123   5.348   2.190 -2.4998 -0.5149 -1.0927
10000SOL     OW31440   5.432   3.642   0.020 -0.1345  0.3808  0.0480
10000SOL    HW131441   5.411   3.607   0.106  2.5189 -0.9829  0.2681
10000SOL    HW231442   5.408   3.571  -0.041  0.9016  0.0333  0.0216
10001SOL     OW31443   1.196   6.131   6.150  0.5046  0.4917  0.5478
10001SOL    HW131444   1.133   6.189   6.193 -1.2564 -1.3069  0.5073
10001SOL    HW231445   1.281   6.173   6.166 -0.2616  1.0406  3.9197
10002SOL     OW31446   0.025   5.395   8.451  0.4491  0.1639 -0.1245
10002SOL    HW131447  -0.053   5.349   8.480  2.1983 -1.8202  1.8014
10002SOL    HW231448   0.021   5.480   8.495 -0.2505 -0.2239  0.5841
10003SOL     OW31449   2.761   2.404   5.679  0.4328  0.2825  0.3905
10003SOL    HW131450   2.708   2.480   5.656 -0.1474  0.0440  0.9103
10003SOL    HW231451   2.822   2.436   5.746  0.2876  0.3300  0.5006
10004SOL     OW31452   7.220   1.218   3.228  0.0972 -0.1253 -0.2498
10004SOL    HW131453   7.298   1.235   3.175 -0.8709 -0.3238 -1.8097
10004SOL    HW231454   7.190   1.305   3.254  1.7583 -0.0933  1.8652
10005SOL     OW31455   0.605   4.711   9.918 -0.0619  0.0490 -0.2879
10005SOL    HW131456   0.661   4.710   9.995 -0.9673 -1.2188  0.3952
10005SOL    HW231457   0.575   4.802   9.911 -0.1373  0.1290  0.9799
10006SOL     OW31458   7.430   2.925   6.439  0.0515 -0.2157  0.2281
10006SOL    HW131459   7.492   2.974   6.493  1.3097 -3.5144  2.1220
10006SOL    HW231460   7.469   2.924   6.352  0.9489  0.5270  0.6008
10007SOL     OW31461   0.858   5.571   6.058  0.1426  0.1816 -0.2960
10007SOL    HW131462   0.770   5.532   6.057  0.2124  0.0367 -0.6692
10007SOL    HW231463   0.903   5.525   6.129 -0.9885  2.2603  1.9272
10008SOL     OW31464   4.023   3.138   1.969  0.0826  0.3776 -0.0648
10008SOL    HW131465   4.038   3.192   1.891  0.2491  0.7428  0.2148
10008SOL    HW231466   4.110   3.122   2.005 -0.0688  1.4676  0.8708
10009SOL     OW31467   4.126   0.360   0.216  0.7644  0.3812 -0.7114
10009SOL    HW131468   4.169   0.276   0.201  2.2556  0.6439  1.6107
10009SOL    HW231469   4.057   0.363   0.150  1.3294 -2.1764 -1.5528
10010SOL     OW31470   5.620   0.767   5.052  0.6367  0.2622  0.3916
10010SOL    HW131471   5.551   0.712   5.014  0.2397 -0.8879  2.6030
10010SOL    HW231472   5.694   0.757   4.993 -0.5594  0.2393 -1.1789
10011SOL     OW31473   6.942   1.111   8.614  0.4591  0.0212 -0.5111
10011SOL    HW131474   7.004   1.087   8.544 -0.8000  2.2754 -2.5544
10011SOL    HW231475   6.984   1.184   8.659  0.0118  0.5016 -0.8601
10012SOL     OW31476   0.358   0.884   7.211 -0.5262 -0.0856  0.0733
10012SOL    HW131477   0.318   0.810   7.165  0.2380  0.2792 -1.2161
10012SOL    HW231478   0.301   0.958   7.192 -2.3748 -0.5939  2.8991
10013SOL     OW31479   6.531   3.784   9.157 -0.3494 -0.6255  0.2335
10013SOL    HW131480   6.570   3.749   9.238  0.2054 -0.1126  0.1923
10013SOL    HW231481   6.596   3.765   9.089 -0.9066 -1.2477 -0.1436
10014SOL     OW31482   2.812   4.552  10.533 -0.0256 -0.6209  0.0637
10014SOL    HW131483   2.816   4.522  10.442  2.1505  0.9200 -0.4307
10014SOL    HW231484   2.860   4.485  10.582 -0.0193 -0.7710 -0.1445
10015SOL     OW31485   1.111   7.662   5.079  0.3325 -0.0147  0.5259
10015SOL    HW131486   1.116   7.748   5.036  0.7846 -0.3407 -0.0894
10015SOL    HW231487   1.048   7.613   5.026 -1.7276  0.6563  2.1980
10016SOL     OW31488   4.910   2.755  10.514 -0.2083  0.0103 -0.4100
10016SOL    HW131489   4.996   2.796  10.512 -0.2938  0.4511  2.2674
10016SOL    HW231490   4.855   2.813  10.461  0.4331  1.5001  0.5022
10017SOL     OW31491   0.148   5.503  12.427 -0.1110  0.0773  0.6788
10017SOL    HW131492   0.169   5.536  12.339 -2.4017  2.0048  0.7819
10017SOL    HW231493   0.201   5.556  12.486  1.1123 -0.9377  0.5413
10018SOL     OW31494   0.770   1.438  10.523 -0.1970  0.6757 -1.1658
10018SOL    HW131495   0.717   1.359  10.523 -1.2529  1.3628 -0.1748
10018SOL    HW231496   0.845   1.417  10.579  0.0545  0.0624 -1.7141
10019SOL     OW31497   5.081   1.948   6.974 -0.5105  0.0033  0.5955
10019SOL    HW131498   5.126   1.881   7.026  0.9630  0.5227  0.0479
10019SOL    HW231499   5.040   2.004   7.040  0.0932 -0.1869  1.1535
10020SOL     OW31500   4.949   2.033   7.582  0.1920 -0.0405  0.3711
10020SOL    HW131501   4.986   1.982   7.654 -0.3331 -0.6227  0.2349
10020SOL    HW231502   4.876   2.080   7.621  1.2249  1.3554  0.7131
10021SOL     OW31503   2.171   6.599   7.529  0.3269  0.0793  0.3828
10021SOL    HW131504   2.162   6.593   7.434 -1.2861  0.3361  0.4787
10021SOL    HW231505   2.123   6.523   7.562 -0.7304  0.9833  1.0139
10022SOL     OW31506   5.659   5.597   7.843 -0.2056 -0.4539 -0.7026
10022SOL    HW131507   5.585   5.637   7.890 -0.8247 -1.2399 -0.9762
10022SOL    HW231508   5.625   5.580   7.755  0.3174 -0.7840 -0.8463
10023SOL     OW31509   7.322   2.294   0.003 -0.1131  0.3003 -0.2688
10023SOL    HW131510   7.253   2.229  -0.005 -1.0593  1.1970  0.3609
10023SOL    HW231511   7.403   2.244  -0.008 -0.7932 -1.0169  0.3682
10024SOL     OW31512   4.656   6.636  10.694  0.0315 -0.1058  0.2387
10024SOL    HW131513   4.716   6.666  10.625  0.1415 -1.9080 -0.5148
10024SOL    HW231514   4.654   6.708  10.757  1.8285  0.6192 -0.4542
10025SOL     OW31515   4.168   5.857   0.024 -0.1210 -0.3767 -0.4522
10025SOL    HW131516   4.174   5.944   0.063 -0.1609 -0.5387 -0.0879
10025SOL    HW231517   4.234   5.805   0.070 -0.7825 -0.8062  0.0256
10026SOL     OW31518   0.051   2.582  12.191  0.3870  0.0842 -0.1541
10026SOL    HW131519   0.082   2.603  12.279 -0.7412  0.0127  0.2830
10026SOL    HW231520  -0.018   2.516  12.205  2.5791 -2.6438 -1.3474
10027SOL     OW31521   6.505   7.727   2.761  0.3283  0.0385 -0.3902
10027SOL    HW131522   6.419   7.736   2.719  0.9495 -0.2024 -1.7787
10027SOL    HW231523   6.551   7.664   2.706  1.1465 -0.3899  0.7649
10028SOL     OW31524   7.535   3.239   7.901  0.4019  0.2503  0.1895
10028SOL    HW131525   7.552   3.146   7.914  2.7062  0.6005  0.0661
10028SOL    HW231526   7.579   3.260   7.819  0.9776  1.6978  0.8411
10029SOL     OW31527   1.001   5.805   1.831  0.0975 -0.2075  0.0873
10029SOL    HW131528   1.059   5.787   1.757 -0.6520 -1.2548 -0.2721
10029SOL    HW231529   0.975   5.719   1.863  0.9200  0.2086  2.0097
10030SOL     OW31530   3.025   3.164   5.160  0.6132  0.3343  0.1400
10030SOL    HW131531   3.067   3.087   5.198  0.7696 -0.2240 -1.0988
10030SOL    HW231532   3.091   3.201   5.101 -0.4214 -0.3281 -1.5275
10031SOL     OW31533   1.053   1.524   6.910  0.4989  0.1600 -0.8971
10031SOL    HW131534   0.978   1.486   6.955 -0.1893  1.9408 -0.4788
10031SOL    HW231535   1.127   1.509   6.968 -0.4062  2.6124  1.0312
10032SOL     OW31536   6.120   1.741   2.426  0.2363  0.5019 -0.2043
10032SOL    HW131537   6.104   1.834   2.412  1.2497  0.6998 -0.0925
10032SOL    HW231538   6.055   1.697   2.371  0.4627  1.2739 -1.1131
10033SOL     OW31539   6.839   6.973   1.287 -0.8830  0.0052 -0.4951
10033SOL    HW131540   6.910   7.024   1.325 -1.3295  0.8210 -0.7380
10033SOL    HW231541   6.871   6.949   1.200 -0.3785 -0.7702 -0.1058
10034SOL     OW31542   4.540   6.924   4.463 -0.1028 -0.3229  0.5780
10034SOL    HW131543   4.522   6.992   4.398  1.2443  0.2993  0.8315
10034SOL    HW231544   4.455   6.910   4.506 -0.8117 -0.1357 -0.7156
10035SOL     OW31545   7.046   3.615   3.192  0.2356  0.6591 -0.1703
10035SOL    HW131546   7.045   3.566   3.110 -0.0173  2.2324 -1.1326
10035SOL    HW231547   7.133   3.599   3.229  0.2857 -0.1938 -0.6410
10036SOL     OW31548   1.353   4.717  11.009  0.3883 -0.0102 -0.2591
10036SOL    HW131549   1.388   4.673  11.087  1.1831  0.5800 -0.2784
10036SOL    HW231550   1.291   4.781  11.045  2.6313  2.0963  0.1379
10037SOL     OW31551   3.901   2.447  12.186 -0.1950 -0.4332 -0.1926
10037SOL    HW131552   3.854   2.465  12.267  1.9558  1.0878  0.7899
10037SOL    HW231553   3.982   2.404  12.214  1.1693  1.2462 -1.3812
10038SOL     OW31554   5.541   5.697   4.505  0.1854  0.2247  0.5029
10038SOL    HW131555   5.534   5.626   4.569  1.1853 -0.6175 -0.2959
10038SOL    HW231556   5.517   5.657   4.421 -1.1520  1.3285  0.3219
10039SOL     OW31557   5.426   0.795   5.589 -0.3956  0.2891 -0.0347
10039SOL    HW131558   5.477   0.735   5.643 -0.2407  0.4045 -0.0539
10039SOL    HW231559   5.474   0.877   5.592 -1.3373  0.8386  1.1624
10040SOL     OW31560   4.752   6.586  12.398 -0.0418 -0.1818 -0.7431
10040SOL    HW131561   4.660   6.565  12.416  0.4391 -1.0650  0.9331
10040SOL    HW231562   4.753   6.680  12.381 -1.1082  0.0546  0.4055
10041SOL     OW31563   1.826   2.249   6.761 -0.0947  0.3039  0.2756
10041SOL    HW131564   1.765   2.282   6.827 -0.9551  1.7013 -1.1583
10041SOL    HW231565   1.889   2.320   6.749  1.0384 -0.5943  0.7537
10042SOL     OW31566   3.989   1.398   0.104 -0.0621 -0.0977  0.0654
10042SOL    HW131567   3.943   1.357   0.178  0.6723 -0.5265  0.2951
10042SOL    HW231568   4.043   1.328   0.068 -0.2647  0.1639 -0.7619
10043SOL     OW31569   7.740   1.590   9.952  0.3469 -0.5574  0.6642
10043SOL    HW131570   7.834   1.574   9.946  0.3963 -0.4367  1.0567
10043SOL    HW231571   7.701   1.528   9.891  0.7121 -0.2760  0.1334
10044SOL     OW31572   6.232   3.060   0.254  0.2228  0.2623  0.3850
10044SOL    HW131573   6.242   3.135   0.312 -0.8319  0.6257  0.1204
10044SOL    HW231574   6.281   3.083   0.176 -0.1940  0.7337  0.2598
10045SOL     OW31575   3.745   7.865  12.116 -0.3137  0.4968  0.5733
10045SOL    HW131576   3.784   7.778  12.103 -0.1340  0.7953 -1.1943
10045SOL    HW231577   3.707   7.887  12.030  1.3254  2.9719  0.3768
10046SOL     OW31578   5.875   1.889   8.175  0.1421  0.4292  0.5913
10046SOL    HW131579   5.815   1.814   8.176  0.1585  0.3660 -0.7308
10046SOL    HW231580   5.861   1.933   8.258 -1.6353  0.3269  0.3693
10047SOL     OW31581   7.015   3.711   0.914 -0.0302 -0.1430  0.0854
10047SOL    HW131582   6.970   3.772   0.855  0.7185  1.7192  1.3481
10047SOL    HW231583   6.948   3.646   0.936 -0.8417  0.1527 -1.3470
10048SOL     OW31584   3.843   0.950  10.606 -0.3980 -0.1002 -0.4079
10048SOL    HW131585   3.785   1.012  10.650  1.4665  1.7151 -0.3279
10048SOL    HW231586   3.903   0.920  10.674 -1.0637 -1.7610 -0.5306
10049SOL     OW31587   0.608   0.762  11.062 -0.8052 -0.6682  0.3225
10049SOL    HW131588   0.539   0.763  11.129  0.6767  0.5649  1.8920
10049SOL    HW231589   0.616   0.853  11.035  0.6647 -0.6827  0.6580
10050SOL     OW31590   3.702   2.301   9.352 -0.7197  0.2409 -0.0851
10050SOL    HW131591   3.710   2.206   9.350  2.3845  0.3695 -2.6844
10050SOL    HW231592   3.631   2.321   9.291  0.4753 -0.3903 -1.7337
10051SOL     OW31593   0.455   1.290   4.232 -0.1366  0.4652  0.0402
10051SOL    HW131594   0.527   1.235   4.264 -0.6914 -0.6184 -0.5383
10051SOL    HW231595   0.404   1.232   4.176 -0.7794  1.5603 -0.5313
10052SOL     OW31596   5.723   4.333  10.578  0.9864 -0.2205  0.3366
10052SOL    HW131597   5.687   4.414  10.615  1.0101 -0.1499  0.2038
10052SOL    HW231598   5.787   4.362  10.513 -0.2183 -0.3184 -0.9524
10053SOL     OW31599   6.820   4.252   4.754 -0.0865  0.1075 -0.1570
10053SOL    HW131600   6.740   4.299   4.778 -0.5807 -0.3025 -0.9575
10053SOL    HW231601   6.793   4.195   4.682  1.0357  0.3176 -0.7571
10054SOL     OW31602   0.088   5.216   6.949 -0.2698  0.1510  0.3212
10054SOL    HW131603   0.181   5.224   6.973 -0.2127 -0.5388  0.3505
10054SOL    HW231604   0.041   5.224   7.032 -0.2198  0.2348  0.3414
10055SOL     OW31605   4.196   6.535   9.741 -0.5120 -0.3428  0.1956
10055SOL    HW131606   4.234   6.607   9.690 -2.2573 -0.0134 -0.7138
10055SOL    HW231607   4.164   6.474   9.675  0.6633 -1.8592  0.9593
10056SOL     OW31608   6.778   7.450   2.443  0.0778 -0.1903  0.2536
10056SOL    HW131609   6.803   7.357   2.441 -0.3401 -0.3111  0.3877
10056SOL    HW231610   6.861   7.497   2.444  0.2936 -0.5458 -0.5723
10057SOL     OW31611   0.885   5.129   4.019  0.0779  0.4441 -0.0953
10057SOL    HW131612   0.835   5.053   4.045 -0.0699  0.5930  0.0554
10057SOL    HW231613   0.896   5.120   3.924 -2.0316  1.4611 -0.5003
10058SOL     OW31614   0.336   2.147   4.611  0.4568 -0.6367  0.3702
10058SOL    HW131615   0.269   2.089   4.650  0.4631 -0.4722  0.6316
10058SOL    HW231616   0.363   2.203   4.684 -0.5691  0.6603 -0.2056
10059SOL     OW31617   3.100   0.236   4.495 -0.1148 -0.5374 -0.0328
10059SOL    HW131618   3.096   0.241   4.590  2.3009  0.2050  0.0925
10059SOL    HW231619   3.013   0.206   4.469 -0.7033 -1.1594  2.4101
10060SOL     OW31620   1.675   3.696   9.961 -0.5120  0.3472  0.1705
10060SOL    HW131621   1.647   3.711  10.051  0.5746  1.1335  0.3973
10060SOL    HW231622   1.696   3.784   9.928 -0.0994 -0.0231 -0.5665
10061SOL     OW31623   6.846   5.620   3.450  0.5239  0.0984 -0.3443
10061SOL    HW131624   6.831   5.544   3.505  0.7703  1.1459  1.2375
10061SOL    HW231625   6.771   5.621   3.390  0.9892 -1.8736 -1.0331
10062SOL     OW31626   2.934   7.946  12.015 -0.0497  0.0833  0.2728
10062SOL    HW131627   2.923   7.866  11.963  2.6803 -0.6547  0.6952
10062SOL    HW231628   2.864   7.941  12.080 -0.2927 -1.6857 -0.0642
10063SOL     OW31629   7.345   3.107   7.686  0.0058  0.0636 -0.8238
10063SOL    HW131630   7.438   3.091   7.669 -0.0204 -0.1782 -0.7402
10063SOL    HW231631   7.320   3.040   7.750 -0.0387  0.6039 -0.2655
10064SOL     OW31632   6.458   7.506   9.260 -0.0117 -0.3780 -0.1152
10064SOL    HW131633   6.505   7.466   9.186 -1.7924  0.5221 -1.8241
10064SOL    HW231634   6.427   7.590   9.225 -2.8909 -0.9405  0.8880
10065SOL     OW31635   7.186   2.177   7.700  0.5111 -0.0426  0.1272
10065SOL    HW131636   7.246   2.114   7.661  0.9506 -0.3036  1.1841
10065SOL    HW231637   7.240   2.227   7.760  0.0641  1.0412 -0.3571
10066SOL     OW31638   3.240   1.649  11.966  0.1133  0.0537  0.0958
10066SOL    HW131639   3.193   1.614  12.041  0.1200  0.0658  0.1058
10066SOL    HW231640   3.309   1.586  11.948 -0.6352 -0.5787 -0.6665
10067SOL     OW31641   7.250   2.910   4.070  0.1027 -0.0582 -0.1978
10067SOL    HW131642   7.255   2.997   4.110  1.1625  0.0153 -0.4560
10067SOL    HW231643   7.329   2.865   4.101  0.4541 -0.3225 -1.4252
10068SOL     OW31644   6.084   0.867  11.401  0.3094 -0.1666 -0.0159
10068SOL    HW131645   6.108   0.922  11.327  1.9201  0.0699  0.6356
10068SOL    HW231646   6.077   0.779  11.365  3.1173 -0.4176 -0.1671
10069SOL     OW31647   2.321   6.432   2.331 -0.0494  0.3664  0.2434
10069SOL    HW131648   2.406   6.388   2.328 -0.5351 -0.6120  0.5208
10069SOL    HW231649   2.340   6.521   2.300  1.1947  0.3711  0.9268
10070SOL     OW31650   5.362   0.232   5.360  0.5768 -0.4184 -0.2450
10070SOL    HW131651   5.283   0.216   5.412  1.0094  2.5915  1.5747
10070SOL    HW231652   5.434   0.223   5.422  1.1870  2.2536 -0.4445
10071SOL     OW31653   6.999   1.605   9.134  0.6757 -0.6574 -0.0803
10071SOL    HW131654   6.908   1.619   9.161  0.6423 -1.6992  0.3991
10071SOL    HW231655   7.022   1.521   9.173  1.1240 -1.5089 -2.0913
10072SOL     OW31656   4.236   1.762   3.238  0.2988 -0.1496 -0.1004
10072SOL    HW131657   4.210   1.763   3.146 -2.7081  2.3807  0.6075
10072SOL    HW231658   4.182   1.694   3.278  1.3103 -0.9701 -0.0987
10073SOL     OW31659   6.456   4.155   8.524  0.5555 -0.4119  0.7092
10073SOL    HW131660   6.423   4.245   8.528 -0.2994 -0.6448 -0.7785
10073SOL    HW231661   6.402   4.107   8.587 -1.3070 -0.5717 -0.9483
10074SOL     OW31662   1.798   0.697   0.057  0.0022 -0.3126 -0.1028
10074SOL    HW131663   1.791   0.611   0.098 -1.1036  0.0580  0.5270
10074SOL    HW231664   1.710   0.734   0.064  0.5115  0.9581 -0.1936
10075SOL     OW31665   1.049   3.705   0.078 -0.0935  0.4709  0.5480
10075SOL    HW131666   1.039   3.668   0.165  1.8778 -0.6922  0.3446
10075SOL    HW231667   1.115   3.774   0.089 -1.9656  2.3993  0.4649
10076SOL     OW31668   5.215   3.523  12.036  0.1110 -0.3057 -0.1555
10076SOL    HW131669   5.296   3.563  12.070 -0.8108  1.3106  0.2233
10076SOL    HW231670   5.193   3.455  12.100  0.8006 -0.3094  0.0847
10077SOL     OW31671   1.348   7.517   5.031  0.5593 -0.5643  0.0288
10077SOL    HW131672   1.275   7.575   5.053  2.2217  1.0990  1.5503
10077SOL    HW231673   1.315   7.429   5.051 -1.9246 -0.2474 -2.0342
10078SOL     OW31674   3.594   4.880  10.360 -0.2697 -0.1476 -0.3890
10078SOL    HW131675   3.600   4.804  10.418 -1.0869 -1.2259 -1.6327
10078SOL    HW231676   3.588   4.955  10.419 -1.0540 -1.1841  0.9226
10079SOL     OW31677   1.058   7.686   5.773 -0.3194 -0.5898 -0.0103
10079SOL    HW131678   1.080   7.690   5.680  1.7808  1.3087  0.4884
10079SOL    HW231679   1.007   7.766   5.789 -1.4041 -1.3238  0.3586
10080SOL     OW31680   4.527   3.275   6.393 -0.0472 -0.7289  0.7154
10080SOL    HW131681   4.539   3.266   6.487  0.8666 -1.0553  0.5725
10080SOL    HW231682   4.535   3.369   6.377 -1.3266 -0.5314  1.0978
10081SOL     OW31683   3.786   7.350  12.229 -0.1536 -0.1851  0.4966
10081SOL    HW131684   3.729   7.282  12.266 -1.3512  0.2103 -0.5284
10081SOL    HW231685   3.766   7.428  12.280 -1.1978  0.1576 -0.3844
10082SOL     OW31686   4.078   6.336   4.977 -0.7643 -0.0322  0.0040
10082SOL    HW131687   4.057   6.244   4.991  0.3871 -0.2583  0.3271
10082SOL    HW231688   4.021   6.383   5.039 -1.2459 -0.5224 -0.0541
10083SOL     OW31689   7.873   0.032   4.115  0.6526  0.1823 -0.2636
10083SOL    HW131690   7.781   0.011   4.101  0.4322  0.8002  0.1963
10083SOL    HW231691   7.883   0.033   4.211  1.2570 -0.3861 -0.3151
10084SOL     OW31692   0.296   0.777   3.171  0.4562  0.0610  0.1866
10084SOL    HW131693   0.202   0.760   3.174  0.9618 -3.5517 -0.6915
10084SOL    HW231694   0.305   0.846   3.106 -1.4343 -1.6950 -2.1248
10085SOL     OW31695   3.166   3.155   4.296  0.1458 -0.1425 -0.4999
10085SOL    HW131696   3.122   3.086   4.345 -3.3454  2.4163  0.3063
10085SOL    HW231697   3.124   3.154   4.210  0.6573  0.4428 -0.7621
10086SOL     OW31698   2.906   3.896  11.165  0.1321 -0.2955 -0.5082
10086SOL    HW131699   2.815   3.874  11.186  0.1873 -1.2911 -1.2089
10086SOL    HW231700   2.907   3.991  11.157 -0.8160 -0.2598 -0.3251
10087SOL     OW31701   6.600   4.469   3.568 -0.7615  0.3060  0.3757
10087SOL    HW131702   6.667   4.509   3.513  0.9612  0.5028  2.5071
10087SOL    HW231703   6.584   4.533   3.637 -0.2182 -1.3646  2.1071
10088SOL     OW31704   2.601   5.131   2.846 -0.4487  0.2661 -0.1423
10088SOL    HW131705   2.687   5.090   2.858 -0.6960 -0.5876 -1.1236
10088SOL    HW231706   2.621   5.221   2.818  0.1141  0.3202  0.4247
10089SOL     OW31707   3.038   5.726   1.221 -0.0049  0.0310 -0.1580
10089SOL    HW131708   2.968   5.743   1.157 -1.7573 -3.1235  0.7229
10089SOL    HW231709   2.991   5.707   1.302  1.8592 -1.9511  0.5344
10090SOL     OW31710   1.324   5.820   8.528 -0.4709  0.5822  0.3359
10090SOL    HW131711   1.319   5.854   8.439  0.4126 -0.0720  0.0203
10090SOL    HW231712   1.383   5.880   8.573  1.0047 -0.4207 -0.1929
10091SOL     OW31713   4.815   5.875   2.405 -0.1156 -0.3614 -0.3344
10091SOL    HW131714   4.733   5.827   2.419 -0.6404  0.2481 -1.2602
10091SOL    HW231715   4.861   5.823   2.339 -0.0180 -0.3850 -0.2481
10092SOL     OW31716   6.266   5.614   7.398 -0.1955 -0.2037 -0.3079
10092SOL    HW131717   6.278   5.523   7.426 -0.4198 -0.4576 -1.0177
10092SOL    HW231718   6.172   5.629   7.406  0.0176  0.4781  1.3040
10093SOL     OW31719   1.317   6.901  11.202 -0.0819  0.3778 -0.3911
10093SOL    HW131720   1.367   6.917  11.282 -0.6792 -0.9765  0.2985
10093SOL    HW231721   1.347   6.815  11.172 -2.6626 -1.0004  0.6374
10094SOL     OW31722   3.978   4.978  11.349 -0.6185 -0.0189 -0.1151
10094SOL    HW131723   3.996   5.015  11.263 -0.6962 -1.1712 -0.6561
10094SOL    HW231724   3.941   4.891  11.330  2.2788 -1.6559  1.0433
10095SOL     OW31725   3.157   7.838  11.211  0.2195  0.4409 -0.2786
10095SOL    HW131726   3.174   7.922  11.252  0.5213  0.2511 -0.0089
10095SOL    HW231727   3.061   7.830  11.212  0.1806 -1.1181  3.7172
10096SOL     OW31728   1.428   6.554  10.247  1.1148 -0.9767  0.0977
10096SOL    HW131729   1.360   6.598  10.195 -1.8058 -4.0782  1.0038
10096SOL    HW231730   1.459   6.622  10.307 -0.8601  0.7078 -0.6474
10097SOL     OW31731   0.261   2.688   9.131  0.1769  0.4664  0.2762
10097SOL    HW131732   0.339   2.664   9.080 -1.0176 -1.5674 -0.7293
10097SOL    HW231733   0.255   2.783   9.122  0.8214  0.3419 -2.2133
10098SOL     OW31734   7.703   3.598   9.513 -0.1044  1.0476  0.2064
10098SOL    HW131735   7.710   3.584   9.419 -0.1963  1.9512  0.0592
10098SOL    HW231736   7.745   3.521   9.552  1.2987  1.3892 -0.5732
10099SOL     OW31737   0.510   3.059   6.838  0.3402  0.1739 -0.3286
10099SOL    HW131738   0.536   2.995   6.771  0.7619  1.2586 -1.2327
10099SOL    HW231739   0.431   3.100   6.803 -0.9854 -1.0526  1.0722
10100SOL     OW31740   3.354   6.001   9.273 -0.6692  0.2170 -0.4076
10100SOL    HW131741   3.426   6.059   9.251  0.5469 -1.2316 -0.4202
10100SOL    HW231742   3.342   5.946   9.195  0.6801 -1.9512  0.7931
10101SOL     OW31743   3.134   1.128   5.432  0.5683  0.0659  0.5906
10101SOL    HW131744   3.194   1.199   5.456  0.3627  0.0766  1.0783
10101SOL    HW231745   3.073   1.123   5.505  0.0509 -0.0345  0.1544
10102SOL     OW31746   0.251   0.399   0.645 -0.3668 -0.7106 -0.4134
10102SOL    HW131747   0.344   0.404   0.623  0.1592 -0.8027  1.6034
10102SOL    HW231748   0.236   0.306   0.663 -0.4182 -0.4660  0.8788
10103SOL     OW31749   0.515   1.563   3.693 -0.0547 -0.9217 -0.8989
10103SOL    HW131750   0.557   1.499   3.751  0.5228  0.7098  0.5769
10103SOL    HW231751   0.587   1.597   3.640  0.0577  0.0333 -0.1599
10104SOL     OW31752   6.891   0.862   2.966  0.0568 -0.0629  0.0658
10104SOL    HW131753   6.842   0.884   2.886  1.5462  0.1782 -0.8155
10104SOL    HW231754   6.850   0.915   3.034 -1.0687 -0.0648 -0.5826
10105SOL     OW31755   1.275   7.003   5.765 -0.6762 -0.4935  0.2101
10105SOL    HW131756   1.244   6.984   5.676 -3.0928 -0.1796  0.9046
10105SOL    HW231757   1.203   6.976   5.822  0.6865 -0.4223  2.0840
10106SOL     OW31758   5.004   1.170   2.454  0.0118 -0.0273 -0.2017
10106SOL    HW131759   4.925   1.169   2.400 -1.1397 -3.8772  1.2010
10106SOL    HW231760   5.076   1.162   2.392 -0.8772  0.8769 -1.3864
10107SOL     OW31761   1.017   2.809   7.535  0.3122  0.0645  0.2940
10107SOL    HW131762   0.977   2.890   7.566  1.0804  0.3519  0.5684
10107SOL    HW231763   1.014   2.751   7.611 -0.3115 -0.1972  0.0737
10108SOL     OW31764   4.975   3.924   8.660 -0.1957 -0.3213 -0.0699
10108SOL    HW131765   5.024   3.902   8.739 -0.7110  1.2126  0.7199
10108SOL    HW231766   5.039   3.962   8.600 -0.2412  1.0089  0.6806
10109SOL     OW31767   2.569   7.423   5.076 -0.1295 -0.9230 -0.3347
10109SOL    HW131768   2.628   7.348   5.085  0.2849 -0.5915 -0.2280
10109SOL    HW231769   2.481   7.386   5.078  0.0559 -1.3242  0.5450
10110SOL     OW31770   3.542   1.525   0.316 -0.3461  0.2303 -0.5310
10110SOL    HW131771   3.502   1.477   0.388  0.9809 -0.5574 -0.2667
10110SOL    HW231772   3.470   1.572   0.274 -1.2684  0.0481  0.7989
10111SOL     OW31773   2.532   2.165  12.116  0.4772 -0.0815 -0.1061
10111SOL    HW131774   2.620   2.182  12.081  1.0860 -1.5604  0.6201
10111SOL    HW231775   2.473   2.197  12.047  1.4865  2.5923  0.1454
10112SOL     OW31776   1.912   2.707   4.399 -0.0245  0.2411  0.4353
10112SOL    HW131777   1.934   2.614   4.397 -0.0362  0.2429 -1.1112
10112SOL    HW231778   1.881   2.723   4.488 -0.9834 -1.4718  0.4534
10113SOL     OW31779   4.676   5.617   6.738  0.2502 -0.4104 -0.4697
10113SOL    HW131780   4.738   5.569   6.684  1.9215  1.5482 -0.4155
10113SOL    HW231781   4.723   5.635   6.819 -0.2857  1.2353 -0.4701
10114SOL     OW31782   5.824   0.004   8.045  0.0837  0.0768  0.1134
10114SOL    HW131783   5.805   0.057   7.968  1.7844  1.5562  0.6626
10114SOL    HW231784   5.738  -0.015   8.083 -0.6910  0.5010 -1.3509
10115SOL     OW31785   2.310   0.729   6.441  0.0886 -0.0568  0.0201
10115SOL    HW131786   2.331   0.729   6.348 -0.1822  0.6122 -0.0482
10115SOL    HW231787   2.239   0.793   6.450 -0.6388 -0.9111  0.5176
10116SOL     OW31788   7.778   3.045   4.607 -0.4895 -0.4125 -0.2566
10116SOL    HW131789   7.864   3.084   4.597 -0.1238 -0.9873  0.5181
10116SOL    HW231790   7.753   3.017   4.519 -0.9186  1.8300 -0.9119
10117SOL     OW31791   7.734   7.174   8.139 -0.3521 -0.2014 -0.3500
10117SOL    HW131792   7.681   7.095   8.138  0.8214 -1.0162 -0.3551
10117SOL    HW231793   7.775   7.175   8.225 -0.5761  0.5616 -0.2428
10118SOL     OW31794   5.071   4.052   0.947  0.4232  0.1276  0.3097
10118SOL    HW131795   5.125   4.016   0.876  0.9162  0.1236  0.6848
10118SOL    HW231796   5.132   4.065   1.019  0.1699  1.2895  0.3395
10119SOL     OW31797   2.837   7.380   7.487 -0.2079  0.0972  0.8405
10119SOL    HW131798   2.775   7.307   7.487 -0.5682  0.3532 -0.8147
10119SOL    HW231799   2.782   7.457   7.498 -0.2162  0.3215 -0.5881
10120SOL     OW31800   3.704   2.122  10.704 -0.3404  0.7940  0.3488
10120SOL    HW131801   3.704   2.088  10.615 -0.6688  0.6650  0.3955
10120SOL    HW231802   3.795   2.148  10.720 -0.1044  0.0428  0.2759
10121SOL     OW31803   1.013   0.605   8.683 -0.0885 -0.0605 -0.1564
10121SOL    HW131804   0.962   0.580   8.606  0.3396  0.3706 -0.5901
10121SOL    HW231805   1.056   0.524   8.711  0.1003 -0.1332 -0.6430
10122SOL     OW31806   5.934   2.653   8.753  0.2845  0.5480 -0.0976
10122SOL    HW131807   5.930   2.594   8.678  2.2003  2.6079 -1.9444
10122SOL    HW231808   5.880   2.728   8.729  1.5538  1.5954  0.1897
10123SOL     OW31809   7.600   6.073   9.360 -0.3118 -0.4019  0.4490
10123SOL    HW131810   7.662   6.120   9.304 -0.5862 -0.4678  0.0814
10123SOL    HW231811   7.537   6.034   9.298 -1.0563  0.1486  0.8496
10124SOL     OW31812   0.474   3.537  10.441 -0.2678  0.0106 -0.2408
10124SOL    HW131813   0.416   3.510  10.512 -1.0887  1.4867 -0.2928
10124SOL    HW231814   0.417   3.540  10.364  0.0638  0.6421 -0.4723
10125SOL     OW31815   1.583   3.951   7.300  0.3295  0.2530 -0.4848
10125SOL    HW131816   1.662   3.989   7.338 -0.8523  1.1661  1.2199
10125SOL    HW231817   1.513   3.974   7.362 -1.2866 -0.4751 -1.9436
10126SOL     OW31818   4.829   1.714   4.433 -0.0484  0.8890 -0.3285
10126SOL    HW131819   4.857   1.654   4.502  3.3339  0.8987 -1.5311
10126SOL    HW231820   4.838   1.801   4.473  0.7110  0.8329 -0.3574
10127SOL     OW31821   3.940   0.356   7.672  0.3977 -0.2826 -0.3887
10127SOL    HW131822   4.006   0.405   7.721 -1.6452  1.3560  0.9087
10127SOL    HW231823   3.883   0.319   7.739 -1.5361  0.6422 -1.4248
10128SOL     OW31824   1.850   5.847   1.915  0.4065 -0.7100  0.0290
10128SOL    HW131825   1.756   5.827   1.919  0.4929 -0.9030  1.7576
10128SOL    HW231826   1.892   5.764   1.893  0.2797 -0.9920  0.8318
10129SOL     OW31827   6.408   4.498   5.569  0.3286 -0.5424 -0.4972
10129SOL    HW131828   6.454   4.508   5.652 -0.3089 -2.0804  0.0610
10129SOL    HW231829   6.448   4.564   5.512  2.0951 -0.7469  0.4422
10130SOL     OW31830   7.546   6.511  10.306 -0.1273  0.1337  0.0305
10130SOL    HW131831   7.617   6.455  10.336 -0.5334 -0.5584 -0.2610
10130SOL    HW231832   7.473   6.451  10.290 -0.8474  0.8464  0.5121
10131SOL     OW31833   7.775   2.017   8.649 -0.6011  0.3598 -0.7007
10131SOL    HW131834   7.735   2.056   8.572  1.0027  0.2618 -1.6159
10131SOL    HW231835   7.713   2.035   8.720 -2.6111 -0.4206 -2.1590
10132SOL     OW31836   7.051   2.369   6.671 -0.8495 -0.3100  0.0650
10132SOL    HW131837   7.092   2.282   6.672  0.3267  0.2082 -0.4312
10132SOL    HW231838   7.110   2.422   6.618 -1.1975  0.9612  0.8943
10133SOL     OW31839   4.624   2.958   6.653  0.4739 -0.2722  0.0748
10133SOL    HW131840   4.635   2.927   6.743  1.1158  1.8521  0.7827
10133SOL    HW231841   4.707   2.935   6.610  0.0925 -1.4629 -0.0452
10134SOL     OW31842   0.027   3.068   2.082  0.1664 -0.4296 -0.8932
10134SOL    HW131843  -0.006   3.023   2.004  1.0410 -0.8960 -1.0124
10134SOL    HW231844   0.122   3.058   2.077  0.3888  1.2570 -0.8105
10135SOL     OW31845   3.533   4.639   4.017  0.2396 -0.0694  0.2637
10135SOL    HW131846   3.568   4.586   4.089 -1.4955 -0.0077  1.2063
10135SOL    HW231847   3.589   4.716   4.015  1.9163 -1.2446 -0.1970
10136SOL     OW31848   2.331   0.722   9.894 -0.5500 -0.5944 -0.6017
10136SOL    HW131849   2.318   0.632   9.865 -1.0518 -1.0479  0.9536
10136SOL    HW231850   2.388   0.715   9.971 -0.4468  0.4316 -0.5678
10137SOL     OW31851   6.708   6.132   0.322 -0.0005  0.0743 -0.4192
10137SOL    HW131852   6.671   6.194   0.259  1.3041  0.9542 -0.3390
10137SOL    HW231853   6.771   6.183   0.372 -0.5919 -0.7525  1.2447
10138SOL     OW31854   6.680   6.256   8.875 -0.1117 -0.2848 -0.1667
10138SOL    HW131855   6.647   6.330   8.824 -0.9033 -0.6205 -0.1674
10138SOL    HW231856   6.718   6.196   8.811  0.1133 -0.0915 -0.2146
10139SOL     OW31857   7.843   7.632   8.074  0.2054 -0.2176  0.0952
10139SOL    HW131858   7.922   7.604   8.120  0.8728 -2.9134 -2.3792
10139SOL    HW231859   7.874   7.689   8.004 -0.4521  1.3406  1.0345
10140SOL     OW31860   0.531   0.052   9.361  0.1300 -0.2564 -0.4608
10140SOL    HW131861   0.517   0.133   9.410  2.1904  0.0494 -0.2988
10140SOL    HW231862   0.443   0.015   9.350 -0.9820  2.4270 -1.3259
10141SOL     OW31863   7.285   3.713  10.481  0.3305  0.4602  0.3639
10141SOL    HW131864   7.246   3.652  10.543  0.1041 -0.0630 -0.2777
10141SOL    HW231865   7.379   3.711  10.500  0.2128  0.6489  0.9806
10142SOL     OW31866   2.357   1.351   8.415 -0.3994 -0.6210 -0.5550
10142SOL    HW131867   2.432   1.302   8.448 -0.3339 -1.7998 -2.3486
10142SOL    HW231868   2.284   1.289   8.417 -1.2114  0.3159  0.5503
10143SOL     OW31869   6.372   1.632   9.662 -0.1101 -0.5539 -0.0864
10143SOL    HW131870   6.434   1.629   9.734 -0.9385 -2.1335  0.6080
10143SOL    HW231871   6.422   1.668   9.589  0.6473  1.4258  1.3311
10144SOL     OW31872   5.897   4.335   3.648 -0.3593  0.1161  0.1450
10144SOL    HW131873   5.824   4.389   3.678 -0.1875  0.5000 -0.1313
10144SOL    HW231874   5.893   4.257   3.704 -1.3332 -0.1364 -0.2613
10145SOL     OW31875   4.490   0.603   3.610  0.2087  0.1175  0.0470
10145SOL    HW131876   4.527   0.585   3.696  1.9975 -1.0036 -0.8980
10145SOL    HW231877   4.468   0.516   3.575  1.1179  0.4016 -1.2839
10146SOL     OW31878   3.473   0.072   1.986 -0.3671  0.0960 -0.8304
10146SOL    HW131879   3.553   0.025   1.960 -0.6086  0.0112 -1.4493
10146SOL    HW231880   3.471   0.066   2.081  0.2994 -0.0130 -0.8186
10147SOL     OW31881   4.986   3.731   9.722  0.2115 -0.4425 -0.5912
10147SOL    HW131882   4.952   3.641   9.729  0.1888 -0.3319  1.0951
10147SOL    HW231883   4.966   3.771   9.806 -1.0530  1.6463 -1.7863
10148SOL     OW31884   2.300   3.822   3.622  0.1824  0.2242  0.0594
10148SOL    HW131885   2.204   3.815   3.630  0.2425  0.8723  1.6395
10148SOL    HW231886   2.330   3.840   3.711  2.0126 -2.3207  0.0761
10149SOL     OW31887   5.562   7.788   0.622 -0.2152 -0.1808  0.1203
10149SOL    HW131888   5.569   7.694   0.605 -0.4267 -0.3649  1.0225
10149SOL    HW231889   5.474   7.811   0.592 -0.2299 -0.3011  0.0694
10150SOL     OW31890   2.389   5.823   1.941  0.5030  0.5717 -0.0986
10150SOL    HW131891   2.325   5.774   1.992  0.0548  2.0625  0.8223
10150SOL    HW231892   2.447   5.756   1.903  0.5058 -0.6118  1.9042
10151SOL     OW31893   2.400   3.428  10.062 -0.2641 -0.2403  0.7231
10151SOL    HW131894   2.399   3.520  10.035 -0.0092 -0.2069  0.8232
10151SOL    HW231895   2.371   3.380   9.985 -0.0509 -0.1050  0.5588
10152SOL     OW31896   2.216   1.303  10.979  0.4066 -0.0431  0.1971
10152SOL    HW131897   2.213   1.315  10.884  2.0409 -0.2981  0.0756
10152SOL    HW231898   2.225   1.392  11.014 -2.0172  0.2269  0.2678
10153SOL     OW31899   7.690   4.062  11.841  0.0429  0.1429 -0.2161
10153SOL    HW131900   7.605   4.023  11.820 -0.3426  0.6067  0.4596
10153SOL    HW231901   7.697   4.055  11.936  1.0954 -0.5578 -0.3170
10154SOL     OW31902   2.663   0.199   3.590 -0.3827 -0.3735 -0.1088
10154SOL    HW131903   2.748   0.235   3.564 -0.2865 -2.1985 -2.7432
10154SOL    HW231904   2.599   0.247   3.537 -0.8523 -0.0752  0.7121
10155SOL     OW31905   0.974   1.777   8.095 -0.3165 -0.6651  0.1372
10155SOL    HW131906   1.047   1.809   8.148  0.1048 -1.2700 -0.0580
10155SOL    HW231907   0.924   1.855   8.072  0.3069 -0.2336  0.2328
10156SOL     OW31908   2.181   5.640  11.687  0.2083  0.5658 -0.5493
10156SOL    HW131909   2.184   5.637  11.783  1.3202  2.5600 -0.4707
10156SOL    HW231910   2.174   5.733  11.666 -1.7988  0.0706 -2.4066
10157SOL     OW31911   0.566   6.929   7.287  0.1756  0.2297  0.3701
10157SOL    HW131912   0.580   6.938   7.381  0.9981 -0.2283  0.3115
10157SOL    HW231913   0.616   7.001   7.248  1.5620 -0.7795  0.2042
10158SOL     OW31914   3.956   5.457   5.128  0.2227 -0.1493 -0.3341
10158SOL    HW131915   3.955   5.362   5.116  1.1954 -0.0882 -0.9919
10158SOL    HW231916   3.880   5.474   5.185  0.7039 -1.4392  0.7654
10159SOL     OW31917   1.609   2.800   7.089 -0.0467  0.1803 -0.3707
10159SOL    HW131918   1.626   2.894   7.088 -0.7469  0.3124 -0.2730
10159SOL    HW231919   1.642   2.769   7.004 -0.7802  0.6925 -0.8490
10160SOL     OW31920   2.490   4.482   3.272 -0.1939  0.1317 -0.1652
10160SOL    HW131921   2.582   4.502   3.291 -0.2308 -0.1493  0.3174
10160SOL    HW231922   2.495   4.423   3.196 -0.0009  0.4822 -0.4283
10161SOL     OW31923   0.737   2.569   5.087  0.4914 -0.0520  0.2271
10161SOL    HW131924   0.767   2.548   4.999  1.6315 -0.5988  0.7225
10161SOL    HW231925   0.718   2.663   5.084  2.3715  0.3658 -0.1258
10162SOL     OW31926   0.559   5.263  12.146 -0.0975 -0.2961 -0.1914
10162SOL    HW131927   0.629   5.229  12.201 -0.1966  0.2289  0.2663
10162SOL    HW231928   0.551   5.199  12.075 -1.8252 -2.5072  1.8296
10163SOL     OW31929   6.310   5.365   5.913 -0.7364  0.3661  0.1684
10163SOL    HW131930   6.222   5.367   5.874 -1.0225  0.3717  0.8029
10163SOL    HW231931   6.362   5.312   5.852 -1.2578  0.0863 -0.0405
10164SOL     OW31932   7.277   2.780  11.204  0.1765  0.5130  0.7023
10164SOL    HW131933   7.218   2.855  11.211  1.4014  1.6962 -0.9941
10164SOL    HW231934   7.362   2.818  11.184  0.6733 -1.3639 -1.0219
10165SOL     OW31935   6.478   2.905   7.983  0.5435 -1.0013  0.2906
10165SOL    HW131936   6.487   2.901   7.887  0.7437  1.1681  0.1700
10165SOL    HW231937   6.547   2.965   8.011 -2.1542  1.9274  1.2531
10166SOL     OW31938   0.899   0.172  10.118 -0.2058  0.0348  0.2546
10166SOL    HW131939   0.987   0.181  10.082 -0.3233  0.7556  0.1211
10166SOL    HW231940   0.886   0.252  10.168 -2.0597  1.6799 -2.5532
10167SOL     OW31941   7.500   1.538  10.125 -0.6253 -0.0024 -0.6166
10167SOL    HW131942   7.526   1.447  10.143 -1.0945  0.4130  3.0779
10167SOL    HW231943   7.582   1.584  10.111 -0.3335 -0.8059 -1.7632
10168SOL     OW31944   7.447   5.425   0.224 -0.1207  0.3879 -0.1604
10168SOL    HW131945   7.456   5.378   0.307  0.4397  2.4114  1.0128
10168SOL    HW231946   7.437   5.517   0.250 -0.4934  1.0267 -2.3359
10169SOL     OW31947   4.156   5.002   7.989 -0.0438  0.0778 -0.0425
10169SOL    HW131948   4.195   4.933   8.042  0.4714 -0.2679 -0.8498
10169SOL    HW231949   4.205   5.081   8.011 -1.9664  0.7248  2.4546
10170SOL     OW31950   2.780   0.453  11.158 -0.3497 -0.5864 -0.0382
10170SOL    HW131951   2.819   0.408  11.083  1.1089  1.9890 -0.9671
10170SOL    HW231952   2.688   0.465  11.134  0.0488 -0.0023 -1.3881
10171SOL     OW31953   7.266   3.515   8.525 -0.3825  0.1870  0.2533
10171SOL    HW131954   7.308   3.433   8.553 -1.0048 -0.1627  0.1754
10171SOL    HW231955   7.339   3.570   8.496  0.0805 -0.1867  0.6866
10172SOL     OW31956   1.721   6.586  11.790 -0.5729  0.1824 -0.3117
10172SOL    HW131957   1.707   6.638  11.869  3.1604  1.2941 -0.1926
10172SOL    HW231958   1.751   6.501  11.822 -2.0428 -0.4584 -0.5652
10173SOL     OW31959   7.937   5.179   6.587  0.1648 -0.4290  0.6928
10173SOL    HW131960   7.938   5.085   6.569 -0.1974 -0.9955  3.1928
10173SOL    HW231961   7.844   5.202   6.590  0.2513  0.0262  0.1346
10174SOL     OW31962   3.867   6.426   6.668 -0.3695  0.1743 -0.9275
10174SOL    HW131963   3.814   6.348   6.681 -0.7193  0.2141 -2.0383
10174SOL    HW231964   3.955   6.393   6.648 -0.3320  0.0882 -0.6310
10175SOL     OW31965   0.373   2.739   7.832 -0.1500 -0.1785 -0.1749
10175SOL    HW131966   0.388   2.769   7.742 -1.4569  1.7023  0.1718
10175SOL    HW231967   0.404   2.811   7.886  0.5782 -1.2731  0.9190
10176SOL     OW31968   4.345   0.794   8.549 -0.0598  0.8271  0.0288
10176SOL    HW131969   4.406   0.763   8.482 -0.8165 -0.8675  0.0762
10176SOL    HW231970   4.400   0.809   8.626  0.0906 -2.9428  0.8151
10177SOL     OW31971   3.997   5.938   4.660 -0.0010 -0.3037 -0.3004
10177SOL    HW131972   3.960   6.022   4.632 -0.4552 -0.8327 -1.3598
10177SOL    HW231973   4.060   5.960   4.728 -1.5345  0.7201  0.8421
10178SOL     OW31974   5.764   5.106   6.587  0.5233  0.4504 -0.2693
10178SOL    HW131975   5.843   5.109   6.641 -0.1180 -1.7461  0.8747
10178SOL    HW231976   5.797   5.100   6.497  1.6421  0.2558  0.1411
10179SOL     OW31977   0.389   6.016   4.279  0.1805  0.3204 -0.1249
10179SOL    HW131978   0.341   5.982   4.202 -0.2401 -0.3676  0.4274
10179SOL    HW231979   0.371   5.952   4.348  1.4754  0.3394  0.2484
10180SOL     OW31980   5.351   4.188   7.092  0.3738 -0.0267 -1.0525
10180SOL    HW131981   5.371   4.107   7.139 -0.0029 -0.0954 -1.0040
10180SOL    HW231982   5.376   4.257   7.153 -0.2031 -0.1169 -0.7095
10181SOL     OW31983   3.881   0.152   6.457  0.4691  0.0750 -0.0832
10181SOL    HW131984   3.804   0.138   6.402  0.8993  1.2919 -1.0384
10181SOL    HW231985   3.918   0.064   6.468 -2.0321 -0.8451  1.9816
10182SOL     OW31986   3.407   4.472   4.364  0.0190  0.4309  0.2126
10182SOL    HW131987   3.360   4.556   4.363 -0.5724  0.1067 -1.1601
10182SOL    HW231988   3.341   4.407   4.343  0.5985 -0.3300  0.7039
10183SOL     OW31989   0.752   4.200  11.593  0.9109  0.1015  0.5087
10183SOL    HW131990   0.807   4.247  11.532  0.2550  0.5702  0.2674
10183SOL    HW231991   0.678   4.169  11.541  1.2025 -0.9761  0.7162
10184SOL     OW31992   1.509   5.467  10.334 -0.0211  0.3094 -0.2165
10184SOL    HW131993   1.560   5.456  10.254  1.1195 -0.4457  0.5903
10184SOL    HW231994   1.554   5.537  10.381 -0.8332  0.9236 -0.3320
10185SOL     OW31995   0.851   7.946   2.904 -0.4020  0.0387  0.0236
10185SOL    HW131996   0.853   7.989   2.818  1.5126  0.9119  0.4404
10185SOL    HW231997   0.773   7.981   2.946 -2.7757 -2.2531 -2.1831
10186SOL     OW31998   1.865   0.484   0.959 -0.0143  0.2795  0.0194
10186SOL    HW131999   1.796   0.424   0.932 -1.0942  1.7158 -0.5665
10186SOL    HW232000   1.944   0.452   0.915 -0.2646 -1.4078  0.7315
10187SOL     OW32001   0.201   6.345  12.023 -0.3372  0.4594 -0.4835
10187SOL    HW132002   0.151   6.420  11.991  0.2970  0.1927 -2.1966
10187SOL    HW232003   0.137   6.274  12.028 -1.2402  1.3376  2.3834
10188SOL     OW32004   1.342   1.535   8.914 -0.0410  0.0997 -0.1453
10188SOL    HW132005   1.279   1.513   8.846 -1.5482 -1.0905  1.5242
10188SOL    HW232006   1.307   1.494   8.993  1.7372  1.2247  1.3150
10189SOL     OW32007   5.653   7.177   4.385  0.4353  0.6309 -0.2333
10189SOL    HW132008   5.705   7.120   4.441  0.6143  1.3207  0.3308
10189SOL    HW232009   5.717   7.235   4.343  0.2753  0.3163 -0.9264
10190SOL     OW32010   5.630   7.555   8.251 -0.9863 -0.1975  0.3926
10190SOL    HW132011   5.565   7.487   8.236 -0.6624 -0.7465  1.4035
10190SOL    HW232012   5.631   7.568   8.346 -0.5138  0.6940  0.2838
10191SOL     OW32013   5.551   5.279  10.053 -0.0348  0.1547 -0.4448
10191SOL    HW132014   5.590   5.363  10.026 -0.4764  0.8838  1.0843
10191SOL    HW232015   5.610   5.246  10.120  0.4939 -1.1241 -1.4958
10192SOL     OW32016   6.752   4.620   3.333  0.0544 -0.1351  0.0381
10192SOL    HW132017   6.700   4.685   3.285  0.7904  0.3655 -0.1070
10192SOL    HW232018   6.741   4.539   3.285 -0.8628 -0.1154  0.2074
10193SOL     OW32019   3.717   5.642   6.764  0.5600 -1.0478  0.3133
10193SOL    HW132020   3.716   5.704   6.837  1.0652  0.4024 -0.8684
10193SOL    HW232021   3.803   5.601   6.769  1.1909  0.1410 -0.3146
10194SOL     OW32022   5.768   4.115  11.042 -0.8209  0.0491 -0.6411
10194SOL    HW132023   5.826   4.178  11.084 -1.6177  0.1608  0.3344
10194SOL    HW232024   5.698   4.168  11.004 -0.9447 -0.1732 -0.7296
10195SOL     OW32025   3.379   2.791   1.972 -0.0606  0.7541  0.1898
10195SOL    HW132026   3.395   2.795   1.878  1.1275  0.3199  0.3540
10195SOL    HW232027   3.457   2.748   2.008 -2.1049 -2.6281  0.9843
10196SOL     OW32028   6.064   2.161   0.828 -0.0888 -0.2202 -0.5008
10196SOL    HW132029   5.983   2.121   0.798  0.0796  0.0130 -1.2964
10196SOL    HW232030   6.051   2.177   0.921 -0.4008 -1.5198 -0.3138
10197SOL     OW32031   5.757   4.100   9.643  0.2597 -0.0976  0.0613
10197SOL    HW132032   5.749   4.106   9.547 -2.4966 -1.3322  0.1198
10197SOL    HW232033   5.829   4.039   9.657 -0.0189 -0.7653 -1.2578
10198SOL     OW32034   1.995   1.070  12.326  0.2509 -0.0707  0.2904
10198SOL    HW132035   1.963   0.988  12.289  1.9507 -0.9539  0.6939
10198SOL    HW232036   1.939   1.138  12.287 -0.8946 -1.3666 -0.3832
10199SOL     OW32037   3.844   3.795  11.548  1.0527  0.7243  0.6246
10199SOL    HW132038   3.777   3.758  11.605  1.7173  0.3384  1.1774
10199SOL    HW232039   3.855   3.885  11.580  1.1040  0.6500  0.8225
10200SOL     OW32040   6.915   0.943   6.651 -0.9103 -0.3280  0.4291
10200SOL    HW132041   6.959   0.966   6.733 -1.6245  0.2859  0.6522
10200SOL    HW232042   6.867   1.023   6.626 -0.0400 -0.2151 -1.0260
10201SOL     OW32043   5.285   6.235   0.418 -0.2391  0.1143 -0.1874
10201SOL    HW132044   5.357   6.293   0.446 -0.5076 -0.0682  0.9054
10201SOL    HW232045   5.321   6.188   0.343  1.1807 -0.7436  0.9766
10202SOL     OW32046   4.797   0.416   2.192  0.2887 -0.5041  0.0990
10202SOL    HW132047   4.813   0.483   2.259 -0.7859  0.1401 -0.2556
10202SOL    HW232048   4.844   0.339   2.224  1.1055  0.2468  0.7962
10203SOL     OW32049   7.553   5.954   3.475  0.9071  0.7675  0.2798
10203SOL    HW132050   7.476   5.971   3.528 -0.8863  1.0673 -2.2583
10203SOL    HW232051   7.565   5.859   3.480 -1.9357  0.1241 -2.0567
10204SOL     OW32052   2.938   4.518   3.122 -0.2916  0.3866 -0.2507
10204SOL    HW132053   2.867   4.546   3.180  1.8308  2.6572  1.4537
10204SOL    HW232054   2.959   4.430   3.150 -1.3186  0.3013  0.3172
10205SOL     OW32055   3.732   6.058   2.669  0.2861 -0.0579  0.3197
10205SOL    HW132056   3.763   6.085   2.756 -1.8092 -0.9113  1.4050
10205SOL    HW232057   3.701   6.139   2.629  0.1706  0.1737  0.8583
10206SOL     OW32058   3.503   0.641   7.649  0.4669 -0.3378  0.5418
10206SOL    HW132059   3.539   0.591   7.722 -0.0705 -1.7474 -0.1271
10206SOL    HW232060   3.571   0.640   7.583  0.4674 -0.1333  0.5374
10207SOL     OW32061   5.805   5.575  11.973 -0.4400 -0.3056 -0.0375
10207SOL    HW132062   5.805   5.479  11.974 -0.1979 -0.3062 -0.0810
10207SOL    HW232063   5.712   5.599  11.970 -0.4780 -0.5482 -1.0034
10208SOL     OW32064   4.731   5.103   7.706  0.1215 -0.1387 -0.0151
10208SOL    HW132065   4.683   5.124   7.626  0.1778 -0.9055 -0.2544
10208SOL    HW232066   4.674   5.134   7.776 -0.2330 -0.0681 -0.3304
10209SOL     OW32067   1.220   4.401  11.934  0.0275 -0.8404 -0.6146
10209SOL    HW132068   1.232   4.335  11.867  0.3759 -0.4014 -0.9914
10209SOL    HW232069   1.162   4.466  11.894  0.6662 -0.3054 -0.7000
10210SOL     OW32070   2.226   4.250  11.380  0.2996  0.5805 -0.0949
10210SOL    HW132071   2.199   4.223  11.293  1.8909 -0.9890 -0.1564
10210SOL    HW232072   2.191   4.182  11.438  2.0176 -0.2318  0.0681
10211SOL     OW32073   3.992   6.280   2.476  0.3269  0.0101  0.1126
10211SOL    HW132074   4.033   6.353   2.429  1.4189 -0.2646  0.6203
10211SOL    HW232075   3.898   6.296   2.467  0.5368  0.8401 -0.7773
10212SOL     OW32076   5.941   5.223   6.023 -0.0384  0.6816  0.8519
10212SOL    HW132077   5.854   5.204   6.056 -0.4971 -0.8922 -1.0473
10212SOL    HW232078   5.933   5.311   5.984 -1.0257  0.2362 -0.0011
10213SOL     OW32079   3.794   0.032   8.872 -0.1712  0.2740  0.6164
10213SOL    HW132080   3.768   0.062   8.959  0.0600 -0.2364  0.8637
10213SOL    HW232081   3.789   0.111   8.817  1.9882  1.1604  1.5868
10214SOL     OW32082   3.228   4.768   6.812 -0.6558 -0.3158 -0.2102
10214SOL    HW132083   3.155   4.711   6.789 -2.4640  1.4904  0.6962
10214SOL    HW232084   3.296   4.747   6.748 -1.8157 -2.3075 -0.8908
10215SOL     OW32085   4.590   0.961   9.902 -0.0662 -0.2187 -0.0502
10215SOL    HW132086   4.562   1.047   9.935  1.1714  0.4024 -0.5650
10215SOL    HW232087   4.520   0.901   9.930 -1.2663  1.0484 -0.2023
10216SOL     OW32088   3.147   1.716   1.712 -0.1504  0.3738 -0.2377
10216SOL    HW132089   3.155   1.811   1.719 -1.3320  0.4884 -0.3363
10216SOL    HW232090   3.090   1.691   1.784  0.5880 -0.3309  0.1096
10217SOL     OW32091   4.188   5.962   9.739  0.5263 -0.7133 -0.5453
10217SOL    HW132092   4.274   5.991   9.769  0.6259 -2.0164  0.5303
10217SOL    HW232093   4.206   5.906   9.664  0.6090 -0.8225 -0.4444
10218SOL     OW32094   1.657   5.161   8.702  0.4359 -0.1118 -0.1839
10218SOL    HW132095   1.724   5.137   8.767 -1.1702  0.0539  1.6332
10218SOL    HW232096   1.579   5.113   8.730 -0.3800  0.1876 -1.8803
10219SOL     OW32097   6.529   2.487   0.639 -0.0207  0.0570  0.2761
10219SOL    HW132098   6.486   2.435   0.707  0.4242 -1.3804 -0.4935
10219SOL    HW232099   6.477   2.472   0.560  0.5711  0.1299 -0.1377
10220SOL     OW32100   5.611   4.503   8.447 -0.1189 -0.2376 -0.0569
10220SOL    HW132101   5.635   4.563   8.518  0.6401 -0.7436  0.1299
10220SOL    HW232102   5.584   4.560   8.375 -3.7285  0.2736  1.5341
10221SOL     OW32103   7.602   2.572   4.491  0.4321 -0.1220 -0.1580
10221SOL    HW132104   7.573   2.521   4.566 -0.6426 -0.2941 -0.6577
10221SOL    HW232105   7.520   2.606   4.453  0.8930 -0.5323 -1.5867
10222SOL     OW32106   0.770   7.476   5.293  0.1257 -0.0559 -0.1846
10222SOL    HW132107   0.708   7.414   5.332  1.5796 -1.2786  0.2752
10222SOL    HW232108   0.737   7.491   5.205 -1.7712  0.6897  0.5991
10223SOL     OW32109   7.873   2.029   1.215  0.5294 -0.0875  0.2615
10223SOL    HW132110   7.796   2.075   1.248 -0.3653 -1.4086  0.0925
10223SOL    HW232111   7.900   2.079   1.138  0.5646  1.0547  1.0005
10224SOL     OW32112   5.580   0.881   2.484  0.1192  0.4627 -0.5264
10224SOL    HW132113   5.589   0.888   2.579  0.9872  1.4686 -0.6592
10224SOL    HW232114   5.493   0.917   2.465 -0.9959 -1.7569  0.0558
10225SOL     OW32115   2.933   5.091  10.862  0.1415 -0.0246  0.1841
10225SOL    HW132116   3.003   5.076  10.925  0.1210 -3.4721 -0.4617
10225SOL    HW232117   2.853   5.065  10.908 -0.1561 -0.4283 -0.5528
10226SOL     OW32118   6.033   2.033  10.830 -0.3708 -0.4301  0.0118
10226SOL    HW132119   6.051   2.114  10.782  0.6104 -0.3602  0.4760
10226SOL    HW232120   5.996   2.063  10.914 -2.0653 -0.5510 -0.6432
10227SOL     OW32121   4.394   1.413   1.876 -0.5878  0.2381 -0.6285
10227SOL    HW132122   4.325   1.401   1.942 -0.8407 -0.0451 -0.9423
10227SOL    HW232123   4.379   1.343   1.813  0.4768 -0.3086 -0.2863
10228SOL     OW32124   0.209   4.021   1.263  0.2364  0.6922  0.6047
10228SOL    HW132125   0.122   4.016   1.301  0.4527  1.4369  1.2145
10228SOL    HW232126   0.267   4.039   1.337  1.0395 -0.6616  0.3552
10229SOL     OW32127   2.769   5.744   2.339 -0.2287  0.5389 -0.0923
10229SOL    HW132128   2.783   5.796   2.418  0.7888  0.4898 -0.2284
10229SOL    HW232129   2.706   5.795   2.288 -2.9820 -0.6497  1.8526
10230SOL     OW32130   3.433   5.199   7.543 -0.4696 -0.2007 -0.1728
10230SOL    HW132131   3.419   5.110   7.575  2.1922 -0.5882  0.1351
10230SOL    HW232132   3.461   5.248   7.621 -0.9975  0.7029 -0.5331
10231SOL     OW32133   0.170   3.504   7.305 -0.3450 -0.6575  0.4113
10231SOL    HW132134   0.182   3.577   7.365 -0.7985 -0.2158 -0.0184
10231SOL    HW232135   0.166   3.426   7.361 -1.8777 -0.1498  1.0739
10232SOL     OW32136   1.901   5.366   7.048 -0.1118  0.6527 -0.9319
10232SOL    HW132137   1.852   5.309   7.106  0.2160  1.4101  0.1271
10232SOL    HW232138   1.896   5.452   7.089 -0.2736  1.3219 -2.2873
10233SOL     OW32139   4.328   2.676   8.950  0.5515 -0.5021  0.3838
10233SOL    HW132140   4.319   2.769   8.973  1.4894  0.0993 -1.5036
10233SOL    HW232141   4.394   2.643   9.012  1.5943  0.5755 -0.1164
10234SOL     OW32142   2.113   1.173   5.505  0.0867 -0.3553 -0.2961
10234SOL    HW132143   2.090   1.096   5.454  0.1787 -0.2213 -0.5401
10234SOL    HW232144   2.108   1.246   5.443 -0.6040 -0.0757  0.0633
10235SOL     OW32145   5.350   1.649   9.963 -0.5888 -0.0507  0.3795
10235SOL    HW132146   5.280   1.602  10.007 -0.8463  1.6896  1.9630
10235SOL    HW232147   5.376   1.717  10.025  3.0777 -1.0743  0.2412
10236SOL     OW32148   1.061   3.900  12.347  0.0826 -0.5691 -0.1522
10236SOL    HW132149   1.007   3.849  12.407  0.0778  1.5036  1.7448
10236SOL    HW232150   0.998   3.942  12.288  0.0013 -1.5859 -0.8288
10237SOL     OW32151   7.881   2.568   4.457 -0.2075 -0.3710  0.4729
10237SOL    HW132152   7.788   2.549   4.461 -0.1180 -1.3159 -1.1637
10237SOL    HW232153   7.921   2.486   4.428  0.9686  0.4452 -0.2823
10238SOL     OW32154   6.679   7.287   6.368  0.1674 -0.1191  0.5244
10238SOL    HW132155   6.719   7.374   6.369 -0.4059  0.1490  0.9569
10238SOL    HW232156   6.708   7.247   6.450  0.8840 -0.5489  0.0630
10239SOL     OW32157   1.357   1.883   8.748 -0.5928  0.4830 -0.3035
10239SOL    HW132158   1.406   1.953   8.791 -0.3275  0.0516  0.1163
10239SOL    HW232159   1.411   1.858   8.673  1.1335 -1.6343  1.4797
10240SOL     OW32160   0.898   6.057   7.327  0.3684 -0.2751  0.4590
10240SOL    HW132161   0.979   6.026   7.287  0.5173 -0.6881  1.0642
10240SOL    HW232162   0.916   6.054   7.421  0.1157  0.9073  0.5620
10241SOL     OW32163   3.553   5.351   5.024 -0.3254 -0.3835 -0.1402
10241SOL    HW132164   3.472   5.301   5.014  0.1171 -0.7850 -2.0761
10241SOL    HW232165   3.552   5.379   5.116 -2.4133 -0.7670  0.0118
10242SOL     OW32166   0.436   0.999  10.310 -0.2465 -0.1460 -0.3582
10242SOL    HW132167   0.431   1.090  10.280 -1.6214 -0.2624 -0.5312
10242SOL    HW232168   0.502   0.959  10.253  1.7236  1.1440  0.8855
10243SOL     OW32169   7.742   5.520   1.057  0.2056 -0.1682 -0.3830
10243SOL    HW132170   7.726   5.571   0.977  2.1084  1.0185 -0.0869
10243SOL    HW232171   7.777   5.583   1.119  1.5358 -1.5917  0.4067
10244SOL     OW32172   0.505   3.521   5.955 -0.0691  0.5755 -0.6681
10244SOL    HW132173   0.560   3.590   5.990 -0.7826  1.7138 -1.7132
10244SOL    HW232174   0.565   3.465   5.906  0.3722  0.9802 -0.5950
10245SOL     OW32175   2.229   0.227   2.173  0.3332  0.0341 -0.0398
10245SOL    HW132176   2.149   0.264   2.135 -1.0600 -1.9869  0.8134
10245SOL    HW232177   2.209   0.216   2.265  0.8143 -2.4358 -0.1808
10246SOL     OW32178   4.544   6.230  10.288  0.9545  0.0862 -0.2962
10246SOL    HW132179   4.453   6.226  10.259  1.4094 -2.6141 -1.6084
10246SOL    HW232180   4.594   6.255  10.210  1.3063  3.4515  0.8227
10247SOL     OW32181   2.266   2.887   3.405  0.1213 -0.6774 -0.4625
10247SOL    HW132182   2.320   2.926   3.336  0.6961  2.3156  1.4830
10247SOL    HW232183   2.329   2.852   3.468 -0.2540 -0.1838  0.2074
10248SOL     OW32184   4.432   2.502   5.812 -0.2878  0.0570  0.0070
10248SOL    HW132185   4.366   2.521   5.879  1.6161  0.9474  1.7708
10248SOL    HW232186   4.494   2.574   5.819  0.8077 -0.6713 -1.6535
10249SOL     OW32187   1.548   5.912   1.596  0.0758 -0.4812 -0.2242
10249SOL    HW132188   1.591   5.925   1.681  1.5137 -0.0538 -0.9965
10249SOL    HW232189   1.505   5.995   1.578 -0.2016 -0.5603  0.0506
10250SOL     OW32190   2.427   6.767  10.128  0.0310  0.0948 -0.2483
10250SOL    HW132191   2.476   6.849  10.128  0.5741 -0.2207 -0.9304
10250SOL    HW232192   2.337   6.792  10.151  0.1455  0.9064 -0.6656
10251SOL     OW32193   3.681   4.787   1.947 -0.2653 -0.3978 -0.7331
10251SOL    HW132194   3.701   4.715   2.006 -0.4190  0.5658  0.5211
10251SOL    HW232195   3.751   4.785   1.882  0.4940 -0.8257  0.0807
10252SOL     OW32196   2.852   5.139  11.152 -0.2989  0.6998 -0.4002
10252SOL    HW132197   2.769   5.100  11.179 -1.0523  3.2362  1.2788
10252SOL    HW232198   2.828   5.225  11.115  1.6216  2.4341  2.0497
10253SOL     OW32199   1.076   1.094  10.811  0.4519  0.5581  0.3583
10253SOL    HW132200   1.129   1.143  10.874  0.6444 -0.6359  1.1587
10253SOL    HW232201   1.052   1.013  10.857  0.2271 -0.1488 -0.9403
10254SOL     OW32202   7.432   7.018   0.925  0.4425 -0.7269  0.3580
10254SOL    HW132203   7.366   7.081   0.896  0.6970 -0.8083 -0.4423
10254SOL    HW232204   7.515   7.054   0.894  0.7226 -0.8384  0.9819
10255SOL     OW32205   3.335   5.739   6.812  0.3175  0.6298 -0.4020
10255SOL    HW132206   3.371   5.827   6.809 -1.1064  1.2239 -0.7634
10255SOL    HW232207   3.258   5.742   6.755  0.7872 -1.1110 -1.2106
10256SOL     OW32208   7.788   0.955   3.103 -0.1449 -0.4085 -0.0949
10256SOL    HW132209   7.822   1.039   3.071 -0.7238 -0.3845 -0.6539
10256SOL    HW232210   7.855   0.891   3.077 -0.0997 -0.2382 -0.3997
10257SOL     OW32211   1.062   3.313   5.293  0.0569 -0.6748  0.1461
10257SOL    HW132212   1.122   3.363   5.237 -0.6848 -0.6413 -0.6371
10257SOL    HW232213   1.100   3.320   5.381 -0.1265  1.5020  0.1273
10258SOL     OW32214   7.405   7.455   4.823  0.4335  0.3744 -0.4626
10258SOL    HW132215   7.320   7.426   4.791 -0.8116  1.0871  1.9926
10258SOL    HW232216   7.442   7.506   4.750 -0.6780 -0.9417 -1.9993
10259SOL     OW32217   5.046   6.889   4.875  0.1731 -0.9414 -0.4067
10259SOL    HW132218   4.975   6.826   4.888 -0.0166 -0.6883 -0.1927
10259SOL    HW232219   5.001   6.973   4.860  0.4284 -0.5976  0.6669
10260SOL     OW32220   4.921   3.885   1.859  0.0808  0.3660 -0.2867
10260SOL    HW132221   5.016   3.881   1.871 -0.0004 -1.1391  0.0710
10260SOL    HW232222   4.885   3.855   1.942 -0.6544 -0.5853 -0.9228
10261SOL     OW32223   0.450   1.256  10.243 -0.0152 -0.1812  0.3400
10261SOL    HW132224   0.408   1.342  10.246  1.4209  0.5134  1.2342
10261SOL    HW232225   0.518   1.264  10.177 -1.7326 -1.5826 -1.7659
10262SOL     OW32226   7.868   4.983   2.156 -0.7418  0.2420 -0.1662
10262SOL    HW132227   7.917   4.906   2.129  0.6769  0.6442  1.1277
10262SOL    HW232228   7.776   4.957   2.148 -0.3036 -1.1508 -0.9232
10263SOL     OW32229   6.311   3.003  11.669 -0.2759 -0.3172 -0.0235
10263SOL    HW132230   6.354   3.065  11.610 -0.2049 -1.2426 -0.9702
10263SOL    HW232231   6.289   3.055  11.746 -3.2266  1.7958 -2.0524
10264SOL     OW32232   3.400   7.690   6.693  0.1526 -0.6986  0.1255
10264SOL    HW132233   3.482   7.738   6.682 -0.1434  0.2196  1.7228
10264SOL    HW232234   3.428   7.599   6.709  0.7554 -0.7911 -1.2695
10265SOL     OW32235   3.504   0.538   2.771  0.3896 -0.1492  0.3790
10265SOL    HW132236   3.412   0.518   2.758  0.5932 -2.1376  1.4586
10265SOL    HW232237   3.528   0.487   2.849  2.4010  0.2895  0.1003
10266SOL     OW32238   1.600   0.148   2.427  0.6959  0.2796  0.2321
10266SOL    HW132239   1.619   0.054   2.430  0.3919  0.0836 -1.9071
10266SOL    HW232240   1.686   0.190   2.430  0.8253 -0.0342  1.3791
10267SOL     OW32241   6.566   1.953  11.235 -0.0143 -0.2920 -0.0287
10267SOL    HW132242   6.619   1.932  11.311 -0.9002  0.1740  0.7391
10267SOL    HW232243   6.622   2.008  11.180  1.9649 -3.5451 -1.5595
10268SOL     OW32244   3.739   7.090  11.009 -0.0300 -0.2487 -0.4112
10268SOL    HW132245   3.783   7.155  11.064  0.3119 -0.8384  0.0127
10268SOL    HW232246   3.720   7.138  10.928 -1.1054  0.8151  0.4256
10269SOL     OW32247   3.901   0.423   3.610  0.3526  0.3419 -0.4777
10269SOL    HW132248   3.968   0.356   3.598  0.3925  0.4169 -0.6923
10269SOL    HW232249   3.820   0.381   3.582 -0.1785 -0.6371  2.2701
10270SOL     OW32250   0.309   4.129   0.210  0.2529  0.0459  0.2016
10270SOL    HW132251   0.277   4.048   0.169  1.2774 -1.2021  1.7258
10270SOL    HW232252   0.376   4.161   0.150 -0.1477 -0.2346 -0.4117
10271SOL     OW32253   6.968   7.515   4.456  0.3490 -0.4268  0.3233
10271SOL    HW132254   6.915   7.513   4.377 -4.0758 -1.9958  2.9857
10271SOL    HW232255   6.987   7.423   4.475  0.0081 -0.2281  1.7981
10272SOL     OW32256   2.895   7.248   5.633 -0.4549  0.3241  0.2897
10272SOL    HW132257   2.970   7.244   5.693  0.2432 -0.4669 -0.5953
10272SOL    HW232258   2.933   7.280   5.551 -1.2579  0.7112  0.0678
10273SOL     OW32259   2.034   5.808   7.281  0.0608 -0.6819 -0.3860
10273SOL    HW132260   1.987   5.877   7.328  0.4460  0.4615 -1.6149
10273SOL    HW232261   1.974   5.781   7.211 -0.4030 -2.1792  0.5383
10274SOL     OW32262   3.925   3.460   0.127  0.1081 -0.2070  0.2148
10274SOL    HW132263   3.908   3.405   0.050 -2.8610 -0.3183  0.8272
10274SOL    HW232264   3.850   3.519   0.131  0.0529 -0.3384  3.0988
10275SOL     OW32265   4.791   1.346   5.967 -0.8471  0.4707 -0.7128
10275SOL    HW132266   4.728   1.405   6.009  0.8716  2.0916 -0.2760
10275SOL    HW232267   4.824   1.292   6.039 -1.5627 -0.2547 -0.9112
10276SOL     OW32268   3.946   0.939   9.992  0.2394 -0.3158 -0.4101
10276SOL    HW132269   3.973   0.925  10.083  0.3221  0.0155 -0.3816
10276SOL    HW232270   3.977   1.027   9.971 -0.3329 -0.1464 -0.5580
10277SOL     OW32271   6.677   1.291   8.389  0.1539  0.1085 -0.1020
10277SOL    HW132272   6.631   1.325   8.312 -0.6198  0.9169  0.7022
10277SOL    HW232273   6.671   1.361   8.454 -1.0487 -1.3394  1.4329
10278SOL     OW32274   2.317   4.436   5.852  0.0397 -0.9266  0.3424
10278SOL    HW132275   2.302   4.394   5.767  0.0693 -2.3898  1.0267
10278SOL    HW232276   2.244   4.496   5.862 -0.3329 -1.2381 -0.4259
10279SOL     OW32277   5.110   1.394   7.158 -0.2399  0.3417  0.4248
10279SOL    HW132278   5.201   1.398   7.187 -0.9236  2.5677  2.6634
10279SOL    HW232279   5.091   1.483   7.128 -1.5695 -0.2205 -0.5154
10280SOL     OW32280   0.143   0.519   1.049 -0.4138  0.2185 -0.3787
10280SOL    HW132281   0.191   0.436   1.040 -0.5935 -0.0197  0.7551
10280SOL    HW232282   0.051   0.494   1.045 -0.4992  0.1792  1.1762
10281SOL     OW32283   3.635   1.729   3.299  0.2676 -0.7498 -0.6039
10281SOL    HW132284   3.729   1.731   3.278  0.4047 -1.4694 -0.0943
10281SOL    HW232285   3.617   1.815   3.335  1.2822 -1.3466  1.4917
10282SOL     OW32286   0.195   0.292   9.002  0.2002 -0.3347  0.3355
10282SOL    HW132287   0.185   0.357   9.071  1.2814  0.0118  0.1968
10282SOL    HW232288   0.205   0.344   8.922  0.5443 -0.6830  0.1510
10283SOL     OW32289   5.586   7.004   8.634  0.2071 -0.0008 -0.1361
10283SOL    HW132290   5.640   7.047   8.700  1.0235 -1.7298  0.3800
10283SOL    HW232291   5.503   6.986   8.678  0.5481 -0.6443  0.2510
10284SOL     OW32292   3.893   1.676   5.536  0.3959 -0.0920 -0.0930
10284SOL    HW132293   3.966   1.738   5.545 -0.4057  0.8117  0.3019
10284SOL    HW232294   3.825   1.711   5.593 -0.9619 -0.0236 -1.7025
10285SOL     OW32295   1.098   3.829   7.779  0.0710  0.0392 -0.1841
10285SOL    HW132296   1.174   3.857   7.727  0.7445  0.8550  1.1819
10285SOL    HW232297   1.126   3.748   7.820  0.5062  0.7098  0.8909
10286SOL     OW32298   2.324   3.434  10.667  0.9673  0.1169  0.3088
10286SOL    HW132299   2.382   3.415  10.593 -1.5385 -0.8087 -1.5578
10286SOL    HW232300   2.279   3.351  10.684 -0.9847  1.1536  0.5443
10287SOL     OW32301   5.255   0.534   6.913  0.7163  0.0017 -0.4378
10287SOL    HW132302   5.208   0.568   6.838 -1.3874 -2.3031 -0.2828
10287SOL    HW232303   5.326   0.597   6.927 -0.7167  2.2118 -2.3243
10288SOL     OW32304   4.985   3.349   9.515 -0.1126 -0.2462  0.0917
10288SOL    HW132305   4.991   3.354   9.419  0.3788 -1.3486  0.0561
10288SOL    HW232306   5.075   3.357   9.545 -0.2804  0.2447  0.4782
10289SOL     OW32307   1.036   0.515  10.021 -0.0009 -0.6568  0.5867
10289SOL    HW132308   1.122   0.489  10.054  0.2044 -0.5172  0.1697
10289SOL    HW232309   0.973   0.476  10.082  0.3717 -0.4490  1.1007
10290SOL     OW32310   6.825   4.042   5.874 -0.2756 -0.3754 -0.3155
10290SOL    HW132311   6.920   4.051   5.875 -0.3953  1.1043  0.6986
10290SOL    HW232312   6.797   4.069   5.962 -1.8245  1.8613 -1.3974
10291SOL     OW32313   3.726   0.945   4.433 -0.3102 -0.2961  0.6091
10291SOL    HW132314   3.651   0.958   4.375 -1.7274 -2.6714  1.7413
10291SOL    HW232315   3.767   0.864   4.400 -0.4926 -1.0700  2.1912
10292SOL     OW32316   0.115   6.737   9.653  0.6369  0.1929  0.5926
10292SOL    HW132317   0.163   6.809   9.612 -0.2140  0.4259  0.0017
10292SOL    HW232318   0.044   6.717   9.593  1.1771 -1.5338  0.4496
10293SOL     OW32319   0.863   0.721  10.211  0.1376  0.6946 -0.2368
10293SOL    HW132320   0.934   0.739  10.273  2.3812  1.4109 -2.8338
10293SOL    HW232321   0.858   0.625  10.208  1.9446  0.5867 -0.9327
10294SOL     OW32322   7.843   4.544   3.585 -0.6318 -0.0791  0.4695
10294SOL    HW132323   7.897   4.467   3.604 -0.5120 -0.3221 -0.7928
10294SOL    HW232324   7.852   4.599   3.664  1.8261  0.0822  0.1711
10295SOL     OW32325   6.651   2.307  11.360  0.2227  0.0126 -0.1838
10295SOL    HW132326   6.729   2.337  11.314  1.8025 -0.5935  1.9684
10295SOL    HW232327   6.665   2.213  11.373 -0.5483  0.0175  0.8239
10296SOL     OW32328   5.059   7.593   4.756 -0.1602 -0.2018 -0.0204
10296SOL    HW132329   5.100   7.595   4.670 -1.4134 -0.8822 -0.6421
10296SOL    HW232330   5.133   7.589   4.817  0.7917  1.4907 -0.9806
10297SOL     OW32331   2.374   1.546   2.543  0.4731  0.0029  0.1283
10297SOL    HW132332   2.369   1.450   2.537 -0.3843  0.0325  0.2164
10297SOL    HW232333   2.369   1.565   2.637  0.8371  0.1323  0.1252
10298SOL     OW32334   2.402   2.187   6.376 -0.2366 -0.2479 -0.0418
10298SOL    HW132335   2.396   2.275   6.339 -0.4487  0.3940  1.4607
10298SOL    HW232336   2.491   2.182   6.411 -1.3161  0.7858  3.1526
10299SOL     OW32337   5.204   7.754  10.254 -0.4824  0.5259  0.1372
10299SOL    HW132338   5.294   7.783  10.263 -0.3039  0.2488 -0.6773
10299SOL    HW232339   5.189   7.698  10.331 -0.4372  1.7165  1.0393
10300SOL     OW32340   2.979   5.054   6.451  1.2555  0.2062 -0.3052
10300SOL    HW132341   2.992   5.068   6.358 -1.6188 -0.0650 -0.8396
10300SOL    HW232342   3.003   4.963   6.466 -3.1078 -1.5160 -2.0437
10301SOL     OW32343   0.044   3.769   7.754  0.2068 -0.1041  0.5680
10301SOL    HW132344   0.086   3.703   7.809 -1.2040 -1.2869  0.2593
10301SOL    HW232345  -0.048   3.766   7.778  0.0157  1.3694  0.1388
10302SOL     OW32346   0.566   0.567   2.049  0.2079 -0.1389 -0.3160
10302SOL    HW132347   0.522   0.651   2.041  1.1530  0.4035  0.1082
10302SOL    HW232348   0.520   0.510   1.986 -1.0842  0.3953  0.1134
10303SOL     OW32349   5.048   2.909   6.804  0.6155  0.2457  0.0374
10303SOL    HW132350   5.129   2.944   6.767 -0.4096  0.6167 -1.9935
10303SOL    HW232351   5.006   2.984   6.846  0.8744  0.2809  0.2291
10304SOL     OW32352   2.750   0.543   7.383  0.0201 -0.3199 -0.2567
10304SOL    HW132353   2.725   0.542   7.290 -0.9060  0.7754 -0.0420
10304SOL    HW232354   2.826   0.485   7.388  0.0198 -0.4780 -1.6839
10305SOL     OW32355   4.888   2.536   8.819 -0.3931 -0.0825  0.9004
10305SOL    HW132356   4.823   2.470   8.841 -1.5720  0.2396 -1.2611
10305SOL    HW232357   4.866   2.611   8.874 -1.1481 -0.3735  0.9996
10306SOL     OW32358   4.427   1.887   7.297 -1.2140 -0.2840 -0.4072
10306SOL    HW132359   4.432   1.924   7.385 -0.7773 -0.1839 -0.4715
10306SOL    HW232360   4.464   1.954   7.240 -0.6425 -0.7180 -0.5530
10307SOL     OW32361   6.910   3.301  10.471 -0.6763  0.3365  0.8952
10307SOL    HW132362   6.820   3.277  10.447 -0.3274  0.7786 -1.0286
10307SOL    HW232363   6.963   3.228  10.439 -0.1606  1.0442  0.1121
10308SOL     OW32364   6.105   4.892   0.642 -0.3262  0.2266  0.3708
10308SOL    HW132365   6.062   4.819   0.598 -0.2267 -0.3161  1.1486
10308SOL    HW232366   6.185   4.907   0.591  0.2437 -0.9914  0.8703
10309SOL     OW32367   5.110   3.626   3.518 -0.4080  0.0851 -0.1007
10309SOL    HW132368   5.190   3.636   3.569 -1.2263 -1.1743  1.5393
10309SOL    HW232369   5.042   3.669   3.572 -1.2610 -1.0985 -0.1979
10310SOL     OW32370   7.191   2.218   2.730 -0.0822 -0.1590 -0.3270
10310SOL    HW132371   7.171   2.308   2.703  2.5185  0.8682  0.8661
10310SOL    HW232372   7.203   2.171   2.647  1.5725  1.3925 -1.0325
10311SOL     OW32373   1.635   0.941   6.982 -0.0322 -0.2986 -0.4867
10311SOL    HW132374   1.691   0.948   6.904  2.1703 -2.4226  0.7681
10311SOL    HW232375   1.624   1.032   7.011  0.0926  0.4468 -2.5421
10312SOL     OW32376   6.865   3.504   0.998 -0.2246  0.3611  0.4383
10312SOL    HW132377   6.928   3.440   0.965 -1.9302 -0.4259 -1.4522
10312SOL    HW232378   6.841   3.471   1.085  0.0783 -0.6766  0.1357
10313SOL     OW32379   4.479   3.735   9.966 -0.0108  0.1125 -0.3693
10313SOL    HW132380   4.396   3.745   9.921 -0.5350 -0.4169  0.4525
10313SOL    HW232381   4.493   3.818  10.011  0.3204  0.4978 -1.1596
10314SOL     OW32382   2.979   0.759   9.924  0.0705  0.6657 -0.1433
10314SOL    HW132383   3.001   0.680   9.875  3.6220  2.2047 -1.4119
10314SOL    HW232384   2.929   0.813   9.863 -1.9104 -0.3077  0.5518
10315SOL     OW32385   4.066   0.579   1.282 -0.9101  0.0430 -0.0091
10315SOL    HW132386   4.026   0.631   1.352  0.1539 -0.1722  0.7898
10315SOL    HW232387   4.087   0.643   1.214  1.0907  0.8665  1.2777
10316SOL     OW32388   2.317   2.689   0.117  0.0695 -0.3742  0.0722
10316SOL    HW132389   2.360   2.625   0.174 -0.5040 -0.5943  0.2691
10316SOL    HW232390   2.288   2.759   0.177 -0.5359 -0.6064  0.0624
10317SOL     OW32391   4.451   6.033   7.751  0.4567  0.8691 -0.0104
10317SOL    HW132392   4.473   6.047   7.843 -2.7530 -2.4937  1.5456
10317SOL    HW232393   4.393   6.106   7.729  0.0013  0.9149  1.2220
10318SOL     OW32394   7.134   2.764   0.126 -0.3309 -0.1204  0.7761
10318SOL    HW132395   7.055   2.727   0.086  0.0186  1.3191 -1.4552
10318SOL    HW232396   7.182   2.688   0.158 -0.6941 -1.4397 -1.5563
10319SOL     OW32397   3.003   0.577   9.542 -0.5645 -0.0353  0.5587
10319SOL    HW132398   2.963   0.505   9.590  1.3653 -1.0466  0.7754
10319SOL    HW232399   3.083   0.597   9.592 -0.3776  1.3551 -0.2490
10320SOL     OW32400   1.353   7.943   2.161 -0.2859 -0.0435  0.2799
10320SOL    HW132401   1.339   7.875   2.227  0.3036 -1.3878 -0.9283
10320SOL    HW232402   1.311   8.021   2.197 -0.2588 -0.8215  2.0848
10321SOL     OW32403   7.235   0.025   7.335  0.1937 -0.6839 -0.5837
10321SOL    HW132404   7.191  -0.054   7.303  0.6978 -0.7005 -1.2693
10321SOL    HW232405   7.221   0.023   7.430 -1.0534 -0.8164 -0.7436
10322SOL     OW32406   5.646   5.176   0.657 -0.2229  0.0523  0.0354
10322SOL    HW132407   5.569   5.124   0.636 -0.2191 -0.1609  0.5270
10322SOL    HW232408   5.720   5.117   0.646 -0.3013 -0.3977  1.6714
10323SOL     OW32409   6.981   2.106  10.838  0.4264 -0.2608  0.2508
10323SOL    HW132410   6.948   2.023  10.873  0.7919 -1.1036 -1.3270
10323SOL    HW232411   6.913   2.135  10.777  0.5524  0.3190  0.3817
10324SOL     OW32412   5.900   0.659  11.767 -0.1923  0.3720  0.6357
10324SOL    HW132413   5.972   0.654  11.830  0.5475  2.1586 -0.0058
10324SOL    HW232414   5.923   0.732  11.709 -2.4926  0.9954  0.3762
10325SOL     OW32415   6.645   2.319   5.545 -0.3867 -0.1149 -0.1827
10325SOL    HW132416   6.622   2.401   5.590 -2.3938 -0.2272 -0.8852
10325SOL    HW232417   6.731   2.336   5.507 -0.6399  1.5916 -0.0837
10326SOL     OW32418   6.402   5.531   1.532 -0.7562 -0.5042  0.5637
10326SOL    HW132419   6.349   5.482   1.469 -0.5223  0.3568 -0.3293
10326SOL    HW232420   6.351   5.610   1.551 -0.8336 -0.7661  1.4821
10327SOL     OW32421   0.900   2.788  11.665 -0.0101 -0.1012 -0.6971
10327SOL    HW132422   0.954   2.835  11.602 -2.1674  0.2741 -2.3983
10327SOL    HW232423   0.872   2.854  11.728  0.1781  0.0521 -0.7762
10328SOL     OW32424   0.479   6.431   3.728  0.1637 -0.0586 -0.6463
10328SOL    HW132425   0.456   6.476   3.647 -0.9632  1.8067  0.6219
10328SOL    HW232426   0.416   6.463   3.792 -0.3951 -3.1302  0.5270
10329SOL     OW32427   0.565   0.533  10.851  0.1137  0.4238  0.0760
10329SOL    HW132428   0.499   0.599  10.832  0.0196  0.0821 -0.8123
10329SOL    HW232429   0.615   0.570  10.924 -1.7152  0.2087  1.4905
10330SOL     OW32430   0.581   6.932   2.344 -0.2754  0.2350  0.2251
10330SOL    HW132431   0.515   6.881   2.298  0.1274  1.6877 -2.1014
10330SOL    HW232432   0.661   6.918   2.294 -0.3608  3.8255 -1.1406
10331SOL     OW32433   5.152   4.080   8.169 -0.6255 -0.1162 -0.3322
10331SOL    HW132434   5.159   4.023   8.092  0.0706 -0.4309 -0.0477
10331SOL    HW232435   5.194   4.030   8.240  0.9231  1.1446 -0.2953
10332SOL     OW32436   1.921   0.083   9.239 -0.4797 -0.4486  0.1364
10332SOL    HW132437   2.010   0.118   9.233 -0.1542 -0.8207  2.0121
10332SOL    HW232438   1.864   0.160   9.238  0.1571  0.1735  2.9623
10333SOL     OW32439   2.555   4.629  11.150 -0.1631  0.3588 -0.3236
10333SOL    HW132440   2.645   4.600  11.162 -0.3227  0.4174  1.2059
10333SOL    HW232441   2.551   4.660  11.059  1.1315 -0.3763 -0.6550
10334SOL     OW32442   1.859   3.262   8.030  0.2841  0.1892 -0.0703
10334SOL    HW132443   1.874   3.213   7.949 -0.5096 -2.2178  1.1481
10334SOL    HW232444   1.934   3.241   8.086  0.4156  1.1697  0.1540
10335SOL     OW32445   6.127   1.354   0.625 -0.5332 -0.2948  0.1931
10335SOL    HW132446   6.155   1.397   0.705  1.8521 -1.2347 -0.0619
10335SOL    HW232447   6.070   1.418   0.582  2.1570  2.3249  0.2243
10336SOL     OW32448   0.674   5.897   2.793  0.3270  0.1151  0.0620
10336SOL    HW132449   0.588   5.933   2.811  1.0355  2.7717 -1.3169
10336SOL    HW232450   0.670   5.807   2.825 -1.5028  1.4178  4.0904
10337SOL     OW32451   6.158   0.712   9.318  0.5574  0.2795 -0.1735
10337SOL    HW132452   6.130   0.680   9.404 -0.8310  1.2710 -0.2165
10337SOL    HW232453   6.247   0.744   9.333 -0.4725  2.6803  1.5724
10338SOL     OW32454   6.501   2.529  11.865  0.2215  0.0754  0.4939
10338SOL    HW132455   6.567   2.596  11.851 -0.1608  0.2659 -0.4871
10338SOL    HW232456   6.546   2.446  11.850  0.5046  0.1431  0.9503
10339SOL     OW32457   7.810   5.194   7.804 -0.5978 -0.0236  0.0422
10339SOL    HW132458   7.800   5.288   7.794 -0.3909  0.0402  0.4097
10339SOL    HW232459   7.803   5.159   7.715 -0.0788  0.3981 -0.1688
10340SOL     OW32460   2.281   3.449   7.460 -0.0414 -0.2851 -0.0273
10340SOL    HW132461   2.298   3.382   7.393  0.1692  1.0523 -1.3643
10340SOL    HW232462   2.367   3.483   7.482 -0.1943 -0.0901  0.2641
10341SOL     OW32463   6.935   6.676   7.795  0.5223  0.7544  0.5381
10341SOL    HW132464   6.852   6.696   7.753  0.6619 -0.3004 -0.2784
10341SOL    HW232465   6.911   6.633   7.877  0.2553  0.0189  0.0808
10342SOL     OW32466   0.393   7.286   5.908  0.1708 -0.4594  0.1193
10342SOL    HW132467   0.414   7.378   5.894 -0.4166 -0.1234  1.2423
10342SOL    HW232468   0.423   7.242   5.830 -0.3945  0.8256 -0.8641
10343SOL     OW32469   0.910   6.970   7.882  0.3227  0.1233 -0.2201
10343SOL    HW132470   0.976   6.928   7.827  1.4110  0.4254  0.8283
10343SOL    HW232471   0.829   6.921   7.864  1.1045 -1.0804 -0.5590
10344SOL     OW32472   0.079   4.241  11.004  0.1927 -0.3243  0.1095
10344SOL    HW132473   0.088   4.300  11.078  0.1717  0.2956 -0.3748
10344SOL    HW232474   0.057   4.156  11.043 -2.1768  0.4950  0.7187
10345SOL     OW32475   5.235   2.691   1.732 -0.1524 -0.2194  0.6553
10345SOL    HW132476   5.295   2.712   1.803 -0.1069  0.7606  0.3390
10345SOL    HW232477   5.292   2.666   1.659 -0.2105 -3.9880  1.7035
10346SOL     OW32478   1.359   4.241   2.055 -0.1072 -0.2547 -0.5333
10346SOL    HW132479   1.325   4.304   1.991  0.9481 -1.5084 -2.4581
10346SOL    HW232480   1.384   4.165   2.002  1.8895 -0.9397  1.2434
10347SOL     OW32481   7.358   5.108   7.951 -0.5475  0.2903 -0.2963
10347SOL    HW132482   7.444   5.075   7.924 -1.7110 -3.2063 -0.1843
10347SOL    HW232483   7.361   5.108   8.046  0.3255  3.4661 -0.1924
10348SOL     OW32484   1.584   5.710   8.325 -0.5084 -0.3415 -0.0383
10348SOL    HW132485   1.587   5.759   8.407  1.1933 -0.9418  0.3076
10348SOL    HW232486   1.533   5.765   8.266  1.7887  2.2257  0.1412
10349SOL     OW32487   1.599   0.885   0.194  0.0909  0.4568 -0.0331
10349SOL    HW132488   1.645   0.969   0.198  0.1824  0.3423  1.5696
10349SOL    HW232489   1.594   0.855   0.284 -1.5625 -0.3993 -0.3768
10350SOL     OW32490   1.728   5.900   7.505 -0.1130  0.0583  0.5183
10350SOL    HW132491   1.744   5.879   7.597 -0.1196  0.2350  0.5607
10350SOL    HW232492   1.654   5.846   7.480  1.8666 -2.4927 -0.3023
10351SOL     OW32493   5.986   2.389   2.891  0.2486  0.2350  0.7690
10351SOL    HW132494   5.923   2.317   2.888 -0.9942  1.2847 -2.3183
10351SOL    HW232495   5.933   2.467   2.904  1.4893  0.7623  3.1800
10352SOL     OW32496   7.257   7.577   6.717 -0.1963  0.2398  0.0050
10352SOL    HW132497   7.289   7.496   6.676 -1.8572 -0.2987 -0.3127
10352SOL    HW232498   7.336   7.628   6.733  0.6423  0.1102 -3.0800
10353SOL     OW32499   0.738   1.196   9.399 -0.0380 -0.2408 -0.4149
10353SOL    HW132500   0.765   1.172   9.310  2.7782 -1.4937  0.6597
10353SOL    HW232501   0.783   1.279   9.416  0.6590 -0.7456  0.2994
10354SOL     OW32502   4.220   1.120   4.964 -0.2358 -0.1701  0.4438
10354SOL    HW132503   4.278   1.102   4.890  0.3941 -0.5648  1.0214
10354SOL    HW232504   4.143   1.163   4.925  0.1375 -0.2695 -0.4147
10355SOL     OW32505   2.715   5.120   2.413  0.7049 -0.4387 -0.1576
10355SOL    HW132506   2.677   5.036   2.440 -0.3470 -0.0299 -0.3315
10355SOL    HW232507   2.642   5.182   2.419  0.6646 -0.1122 -2.9513
10356SOL     OW32508   2.331   0.203   5.863  0.0349 -0.3514  0.5516
10356SOL    HW132509   2.369   0.195   5.776 -2.3724 -0.7265 -0.5294
10356SOL    HW232510   2.352   0.292   5.891  0.6891 -0.1797 -0.4630
10357SOL     OW32511   1.303   6.938   7.669 -0.7394  0.1613  0.1037
10357SOL    HW132512   1.336   6.871   7.610  0.2661 -0.1444  0.9586
10357SOL    HW232513   1.208   6.938   7.657 -0.7058 -1.0739 -0.2536
10358SOL     OW32514   5.216   6.418   9.558 -0.4240  0.3142  0.1152
10358SOL    HW132515   5.294   6.462   9.524  0.5868 -0.2461  1.5923
10358SOL    HW232516   5.233   6.408   9.652 -2.2862  0.1685  0.4788
10359SOL     OW32517   5.830   3.802   7.220  0.3065  0.3146 -0.2796
10359SOL    HW132518   5.813   3.722   7.171  2.8303 -0.2893 -0.3116
10359SOL    HW232519   5.909   3.838   7.179 -1.0455  3.1589 -0.6225
10360SOL     OW32520   0.991   5.867   8.276 -0.6110  0.1723 -0.2397
10360SOL    HW132521   0.935   5.905   8.344 -2.3275 -1.3430 -0.7144
10360SOL    HW232522   0.931   5.847   8.204  0.8973  0.2707 -1.5863
10361SOL     OW32523   2.665   7.910   4.252  0.1011 -0.7668 -0.8123
10361SOL    HW132524   2.660   8.005   4.259  2.3526 -0.5443 -1.4305
10361SOL    HW232525   2.640   7.878   4.339  1.0214  0.5006 -0.0484
10362SOL     OW32526   7.544   5.893   7.959  0.3046 -0.1174 -0.4433
10362SOL    HW132527   7.519   5.935   8.041  0.5184 -0.1533 -0.3595
10362SOL    HW232528   7.472   5.832   7.940  0.1647  0.0303 -0.3819
10363SOL     OW32529   6.847   1.537   6.914 -0.3006 -0.5209  0.5188
10363SOL    HW132530   6.907   1.595   6.867 -1.3152 -0.7079 -1.0743
10363SOL    HW232531   6.772   1.593   6.935 -0.6366 -0.8890  0.3032
10364SOL     OW32532   6.933   6.638   6.808  0.7175 -0.3773  0.8153
10364SOL    HW132533   6.886   6.656   6.889  0.6542 -1.0984  0.9428
10364SOL    HW232534   7.025   6.651   6.830  0.9952 -3.2961  1.8250
10365SOL     OW32535   0.092   6.281   2.345  0.7231 -0.0906 -0.5016
10365SOL    HW132536   0.089   6.223   2.421 -0.5052  0.3265 -0.2075
10365SOL    HW232537   0.116   6.224   2.272  1.3601 -0.6027  0.0904
10366SOL     OW32538   0.221   3.999   3.889 -0.2903 -0.5320  0.1586
10366SOL    HW132539   0.141   3.966   3.849  0.3521 -0.7949 -0.9412
10366SOL    HW232540   0.288   3.986   3.823  0.5773  0.1244  0.8865
10367SOL     OW32541   5.846   2.688   6.549 -0.1402 -0.4763 -0.0635
10367SOL    HW132542   5.845   2.593   6.551 -1.3857 -0.5049 -1.0641
10367SOL    HW232543   5.907   2.710   6.479 -0.8685 -0.5726 -0.7354
10368SOL     OW32544   2.697   5.636  10.914  0.3384 -0.6915  0.0670
10368SOL    HW132545   2.615   5.654  10.960  0.0650 -1.4849 -0.1002
10368SOL    HW232546   2.679   5.657  10.822  0.8962  0.9295  0.3038
10369SOL     OW32547   7.315   5.275   7.639  0.7882 -0.1951 -0.0487
10369SOL    HW132548   7.361   5.215   7.698 -0.9185 -0.4070  1.1620
10369SOL    HW232549   7.227   5.238   7.631  0.2885  1.0923 -0.8827
10370SOL     OW32550   1.155   1.930   7.680  0.4946 -0.4655 -0.0013
10370SOL    HW132551   1.138   1.853   7.733 -0.8660 -0.1833  0.0131
10370SOL    HW232552   1.220   1.902   7.616 -0.6201 -1.8978 -0.5671
10371SOL     OW32553   3.477   4.774   7.004 -0.0018 -0.3440 -0.3472
10371SOL    HW132554   3.569   4.802   7.006 -0.7047  2.1884 -0.2289
10371SOL    HW232555   3.480   4.681   7.027  2.3254  0.2527  2.3239
10372SOL     OW32556   3.962   7.103  11.935  0.5033  0.1480 -0.2214
10372SOL    HW132557   4.035   7.040  11.933 -1.3868 -2.1611 -1.9929
10372SOL    HW232558   3.958   7.136  11.845  0.0843  1.1457  0.1644
10373SOL     OW32559   4.731   7.142   1.043  0.2027 -0.1290 -0.0603
10373SOL    HW132560   4.649   7.130   0.994  0.9535 -1.1872 -1.0986
10373SOL    HW232561   4.768   7.223   1.008 -0.1558  0.0944  0.0695
10374SOL     OW32562   1.139   7.335  11.724  0.0837 -0.5485  0.5806
10374SOL    HW132563   1.061   7.332  11.780 -0.4746  2.3447  0.0936
10374SOL    HW232564   1.212   7.346  11.786 -0.2485  0.0135  0.8755
10375SOL     OW32565   6.762   6.505  10.097 -0.2895  0.5984 -0.6673
10375SOL    HW132566   6.709   6.584  10.084  0.6400  0.9919 -2.3491
10375SOL    HW232567   6.761   6.461  10.012  0.6121 -0.3138 -0.2246
10376SOL     OW32568   6.946   6.876  11.556 -0.9080 -0.4369  0.1411
10376SOL    HW132569   6.943   6.816  11.631  0.0305 -0.9557 -0.2203
10376SOL    HW232570   6.859   6.917  11.555 -0.8665 -0.2324  1.6561
10377SOL     OW32571   0.556   2.254   0.932  0.5684  0.6084 -0.0503
10377SOL    HW132572   0.574   2.161   0.943  0.9510  0.8525  1.6918
10377SOL    HW232573   0.574   2.292   1.018 -1.1469  2.0460 -0.2652
10378SOL     OW32574   4.184   3.434   4.562 -0.0163 -0.2129 -0.3480
10378SOL    HW132575   4.165   3.394   4.647  0.5125 -0.5244 -0.3725
10378SOL    HW232576   4.160   3.367   4.499 -0.6150  0.0992 -0.4603
10379SOL     OW32577   2.508   5.230   3.091 -0.3328 -0.0020  0.0987
10379SOL    HW132578   2.485   5.158   3.032 -0.9238 -1.9744  2.5461
10379SOL    HW232579   2.602   5.245   3.076 -0.5559 -0.1379 -1.5762
10380SOL     OW32580   4.720   0.954   1.181 -0.3509 -0.4872 -0.6519
10380SOL    HW132581   4.647   0.941   1.241 -0.4181 -0.6797 -0.7759
10380SOL    HW232582   4.764   1.033   1.213  0.4696 -1.3798  0.5108
10381SOL     OW32583   6.866   0.653   8.704 -0.4776  0.1500  0.6940
10381SOL    HW132584   6.882   0.681   8.614 -0.4645  2.1015  1.2679
10381SOL    HW232585   6.771   0.642   8.708 -0.3995 -0.8438  0.2217
10382SOL     OW32586   0.590   5.316   2.914  0.2266  0.2499  0.4568
10382SOL    HW132587   0.561   5.239   2.864  0.2683 -0.6622  1.7915
10382SOL    HW232588   0.624   5.375   2.847 -1.5697 -0.0581 -0.8174
10383SOL     OW32589   5.545   5.215   3.358  0.2776  0.2790 -0.2236
10383SOL    HW132590   5.607   5.220   3.431  1.0619  0.4421 -0.8886
10383SOL    HW232591   5.597   5.181   3.285 -1.5854 -5.1623  0.5194
10384SOL     OW32592   7.322   0.711  10.865 -0.0656  0.3570  0.4418
10384SOL    HW132593   7.269   0.738  10.790  0.0982  1.0600  0.5771
10384SOL    HW232594   7.412   0.732  10.840 -0.0144  0.6362  0.8510
10385SOL     OW32595   5.120   6.326   2.583 -0.0773  0.3892  0.2903
10385SOL    HW132596   5.062   6.283   2.521  0.4995 -0.3224  0.2371
10385SOL    HW232597   5.127   6.266   2.657 -1.3444  1.5450  1.4142
10386SOL     OW32598   0.858   4.125   5.015  0.0130  0.0246  0.8621
10386SOL    HW132599   0.794   4.111   4.945  1.3121 -0.5169 -0.2730
10386SOL    HW232600   0.943   4.125   4.970  0.9946 -1.4989  2.5670
10387SOL     OW32601   1.374   1.010   5.389 -0.0686 -0.5865  0.1172
10387SOL    HW132602   1.446   0.953   5.415 -0.1888 -1.3302 -1.0909
10387SOL    HW232603   1.411   1.098   5.390  0.2595 -0.7217  1.5265
10388SOL     OW32604   1.841   2.179   1.540  0.1306 -0.6647  0.1533
10388SOL    HW132605   1.825   2.258   1.489  1.1068  1.3791  2.7796
10388SOL    HW232606   1.755   2.139   1.552 -0.4108  0.1070 -1.0117
10389SOL     OW32607   1.225   6.387   5.563  0.0856  0.0153  0.3934
10389SOL    HW132608   1.318   6.366   5.553 -0.1988 -0.9842 -0.3351
10389SOL    HW232609   1.204   6.362   5.653  0.6388  0.7321  0.7233
10390SOL     OW32610   3.928   4.427  10.254 -0.1351 -0.3141  0.2209
10390SOL    HW132611   3.874   4.503  10.273  1.4067 -0.0029  4.2545
10390SOL    HW232612   3.871   4.352  10.272 -0.8120 -0.1635 -1.1069
10391SOL     OW32613   1.072   3.116  10.325 -0.4243 -0.7388  0.2497
10391SOL    HW132614   0.996   3.163  10.290 -1.1362  0.0245  2.6463
10391SOL    HW232615   1.137   3.185  10.342  1.9228 -1.5617 -3.9227
10392SOL     OW32616   0.151   1.224   0.788 -0.1421  0.5502  0.4996
10392SOL    HW132617   0.229   1.209   0.735 -0.1681  1.5653  0.1338
10392SOL    HW232618   0.170   1.182   0.872  0.2905 -0.2611  0.0107
10393SOL     OW32619   4.692   4.404   2.204  0.5111 -0.0260 -0.6457
10393SOL    HW132620   4.638   4.333   2.167 -1.0065  1.3633 -1.2037
10393SOL    HW232621   4.700   4.467   2.133  1.0143  0.8269  0.1528
10394SOL     OW32622   0.282   2.221   1.116 -0.7944 -0.1096 -0.2691
10394SOL    HW132623   0.349   2.275   1.157 -0.1018 -1.2804  0.1851
10394SOL    HW232624   0.229   2.189   1.189 -0.3110 -1.2095 -0.3832
10395SOL     OW32625   0.589   0.036   1.562 -0.2511 -0.0931 -0.1316
10395SOL    HW132626   0.610   0.013   1.471 -1.8034 -0.8958 -0.3167
10395SOL    HW232627   0.652  -0.015   1.614  0.5784  0.2848 -0.7275
10396SOL     OW32628   7.256   7.764   9.065  0.3228  0.6853 -0.2112
10396SOL    HW132629   7.282   7.797   8.980  1.3635  1.3198  0.3419
10396SOL    HW232630   7.183   7.819   9.092 -0.3293  0.1721 -0.8893
10397SOL     OW32631   2.815   1.298   3.264  0.3603  0.1191  0.2644
10397SOL    HW132632   2.899   1.343   3.268  0.2118  0.3094  1.4685
10397SOL    HW232633   2.751   1.367   3.247  0.2922  0.1754  0.7368
10398SOL     OW32634   3.967   7.769   5.925  0.2449 -0.1501  0.0914
10398SOL    HW132635   3.895   7.805   5.874 -0.3379 -0.6041  0.5763
10398SOL    HW232636   4.004   7.700   5.870 -1.4199 -1.7670  0.8754
10399SOL     OW32637   4.272   5.698  11.824  0.2437 -0.0562  0.4901
10399SOL    HW132638   4.186   5.684  11.865 -0.6777 -1.9054 -1.8392
10399SOL    HW232639   4.290   5.791  11.839 -3.0868  0.9093 -0.5404
10400SOL     OW32640   1.474   3.406   2.903  0.0076  0.5147  0.4413
10400SOL    HW132641   1.445   3.494   2.927  2.1253  1.7072 -1.0431
10400SOL    HW232642   1.565   3.401   2.934  0.2711 -0.7546 -0.4403
10401SOL     OW32643   0.543   3.551   3.543  0.2716  0.1276  0.3000
10401SOL    HW132644   0.559   3.459   3.566  1.5183  0.1726 -0.3248
10401SOL    HW232645   0.511   3.548   3.453  1.6133  0.3718 -0.2085
10402SOL     OW32646   0.411   4.424   5.502 -0.1489  0.2930 -0.4932
10402SOL    HW132647   0.452   4.342   5.529 -0.1937  0.5907  0.5163
10402SOL    HW232648   0.362   4.402   5.423 -1.2851 -0.9841  0.5191
10403SOL     OW32649   1.737   1.624  11.934  0.5808 -0.4201  0.0496
10403SOL    HW132650   1.763   1.714  11.910 -0.5136  0.2524  1.2907
10403SOL    HW232651   1.818   1.584  11.966  0.8281  0.5603  0.7160
10404SOL     OW32652   7.873   7.741   2.557  0.2167 -0.1982  0.6243
10404SOL    HW132653   7.885   7.742   2.652  0.2707 -0.7201  0.6288
10404SOL    HW232654   7.950   7.785   2.522  0.8405 -1.1406  0.7726
10405SOL     OW32655   3.794   7.010   0.888 -0.2971  0.9979 -0.5269
10405SOL    HW132656   3.720   7.051   0.931  0.4655  1.1172  0.7359
10405SOL    HW232657   3.814   7.067   0.815 -2.1184  0.3716 -1.5717
10406SOL     OW32658   1.276   6.706   8.923 -0.1827 -0.3364  0.3277
10406SOL    HW132659   1.336   6.742   8.988  0.3206  0.0654 -0.3433
10406SOL    HW232660   1.194   6.754   8.937  0.0261 -0.0110  0.4414
10407SOL     OW32661   6.497   4.026   8.011  0.1239  0.2694 -0.5226
10407SOL    HW132662   6.533   3.976   8.084 -0.3658  0.7382  0.0428
10407SOL    HW232663   6.474   4.111   8.048  0.8017  0.8739 -1.4397
10408SOL     OW32664   2.487   0.514   7.099 -0.4755  0.0208 -0.1329
10408SOL    HW132665   2.500   0.607   7.120  0.7412  0.3295 -2.0817
10408SOL    HW232666   2.503   0.469   7.182  0.4727  1.4372  0.4980
10409SOL     OW32667   1.705   3.012   3.027  0.0734 -0.0035 -0.0994
10409SOL    HW132668   1.700   3.094   2.977 -0.4952  0.9455  1.4587
10409SOL    HW232669   1.621   3.005   3.071  0.3638 -1.0948  0.3107
10410SOL     OW32670   0.199   7.125   6.053  0.1403 -0.2211  0.7535
10410SOL    HW132671   0.259   7.193   6.023  2.0319 -0.6542  3.1432
10410SOL    HW232672   0.135   7.171   6.107 -0.4778 -0.0118 -0.1317
10411SOL     OW32673   4.787   2.993   5.021 -0.0136  0.1227  0.1640
10411SOL    HW132674   4.734   3.045   4.960  0.9164  0.1090 -0.6925
10411SOL    HW232675   4.727   2.928   5.056 -0.8344  0.8366  0.0974
10412SOL     OW32676   0.570   6.952   1.530  0.0947  0.2120 -0.5155
10412SOL    HW132677   0.558   7.020   1.597  2.0211 -1.6346  1.9097
10412SOL    HW232678   0.658   6.917   1.547 -1.4994 -4.2357 -0.2443
10413SOL     OW32679   5.231   5.006   7.925  0.5110  0.0248  0.0349
10413SOL    HW132680   5.141   4.999   7.892 -0.2676 -0.1266  2.0017
10413SOL    HW232681   5.252   4.917   7.954  2.3481 -0.5563 -2.7477
10414SOL     OW32682   6.796   1.247   9.125 -0.0164 -0.1705 -0.8309
10414SOL    HW132683   6.769   1.270   9.036 -0.5019  0.4111 -0.5418
10414SOL    HW232684   6.889   1.270   9.128 -0.1802  0.5543 -0.9554
10415SOL     OW32685   3.655   3.974   6.794 -0.0896  0.2698  0.3393
10415SOL    HW132686   3.615   3.901   6.842 -0.9818  0.7558  0.3675
10415SOL    HW232687   3.744   3.945   6.776 -1.2167 -2.0477 -2.1666
10416SOL     OW32688   6.446   6.239   6.506 -0.3964  0.1342 -0.5989
10416SOL    HW132689   6.372   6.180   6.489  0.5659 -1.1117 -0.6310
10416SOL    HW232690   6.523   6.189   6.479  0.7456  0.1883  2.2343
10417SOL     OW32691   5.595   3.391  11.003  0.5542  0.3216  0.4176
10417SOL    HW132692   5.523   3.454  10.998  1.6013  1.5997  0.8979
10417SOL    HW232693   5.671   3.440  10.972  1.0385 -1.3489 -1.2128
10418SOL     OW32694   5.388   3.169   7.535  0.3958 -0.5113  0.0515
10418SOL    HW132695   5.457   3.145   7.472  1.2665 -0.5391  0.9989
10418SOL    HW232696   5.314   3.195   7.480  1.3394  0.0497 -0.9975
10419SOL     OW32697   2.199   1.244   3.350  0.0251 -0.0085  0.4655
10419SOL    HW132698   2.275   1.262   3.294 -0.5106 -1.6214 -0.8641
10419SOL    HW232699   2.126   1.287   3.305 -0.4657 -1.5813 -0.3007
10420SOL     OW32700   7.368   3.361   0.557 -0.1920 -0.0523 -0.5132
10420SOL    HW132701   7.344   3.453   0.556  2.9878  0.9305  0.9481
10420SOL    HW232702   7.340   3.328   0.472 -0.2590  2.5868 -1.6073
10421SOL     OW32703   6.046   7.146   8.143  0.4285 -0.9416 -0.0990
10421SOL    HW132704   6.009   7.163   8.230  0.2872 -1.7412  0.0078
10421SOL    HW232705   6.130   7.192   8.144 -0.0341 -0.0676  0.0734
10422SOL     OW32706   6.593   6.568   7.940  0.3217 -0.6000 -0.0678
10422SOL    HW132707   6.638   6.651   7.927 -0.7809  0.4845  2.4068
10422SOL    HW232708   6.539   6.557   7.861  1.1163  0.5752 -0.8126
10423SOL     OW32709   3.303   4.941   1.767 -0.1562 -0.5419  0.1540
10423SOL    HW132710   3.249   4.946   1.687  0.4604  1.2839 -0.1875
10423SOL    HW232711   3.339   4.852   1.765 -1.3541 -1.0444 -0.7989
10424SOL     OW32712   5.446   4.042   5.494 -0.3923 -0.3607 -0.0748
10424SOL    HW132713   5.515   4.094   5.535 -1.4586 -0.4941  2.0369
10424SOL    HW232714   5.490   3.993   5.424  1.3352  0.6234  0.2917
10425SOL     OW32715   2.822   4.179  11.113 -0.5886 -0.7449  0.0180
10425SOL    HW132716   2.789   4.207  11.028 -0.9291  1.3208  0.7725
10425SOL    HW232717   2.745   4.175  11.169 -0.0958  0.4232  0.8372
10426SOL     OW32718   2.095   7.722  10.425 -0.0420  0.2026 -1.0101
10426SOL    HW132719   2.049   7.730  10.342 -1.0828  2.4381 -0.2903
10426SOL    HW232720   2.067   7.637  10.459 -1.5099  0.3225 -1.8398
10427SOL     OW32721   7.798   0.525   7.707 -0.3416  0.4853  0.0230
10427SOL    HW132722   7.776   0.478   7.787 -1.9553 -0.3687 -0.8721
10427SOL    HW232723   7.830   0.458   7.647  0.7275  1.0959 -0.1186
10428SOL     OW32724   3.894   2.264   5.315  0.6694 -0.1299 -0.6841
10428SOL    HW132725   3.878   2.268   5.409  0.2935 -1.8810 -0.6347
10428SOL    HW232726   3.982   2.300   5.305 -0.0423  1.9505  0.0596
10429SOL     OW32727   4.038   6.373  11.894 -0.3028 -0.1808 -0.0030
10429SOL    HW132728   4.021   6.444  11.832 -1.6725 -0.5770 -0.1161
10429SOL    HW232729   3.951   6.337  11.913  0.0838 -0.1381  2.0751
10430SOL     OW32730   7.638   6.590   4.905  0.1105 -0.1907  0.0104
10430SOL    HW132731   7.644   6.646   4.983  1.3680 -0.3243  0.0284
10430SOL    HW232732   7.622   6.502   4.939 -2.9319  0.2145 -0.0504
10431SOL     OW32733   2.422   7.894   9.930  0.1984  0.0409 -0.2668
10431SOL    HW132734   2.436   7.800   9.918  2.3362  0.3489 -0.5734
10431SOL    HW232735   2.348   7.915   9.873 -0.6002 -1.5078  0.1425
10432SOL     OW32736   4.831   0.889   9.740  0.0093  0.7247 -0.2520
10432SOL    HW132737   4.883   0.832   9.796  0.8793 -0.4518 -2.1709
10432SOL    HW232738   4.744   0.890   9.782 -0.0188 -1.9518 -0.0463
10433SOL     OW32739   7.585   1.770   5.592  0.4921 -0.7719  1.0172
10433SOL    HW132740   7.536   1.812   5.521  1.4485 -0.7043  0.3795
10433SOL    HW232741   7.519   1.753   5.660  0.0503  1.6618  1.2737
10434SOL     OW32742   1.428   6.683  10.645  0.5880 -0.8022  0.2543
10434SOL    HW132743   1.454   6.732  10.567 -1.1298 -0.8689 -0.3898
10434SOL    HW232744   1.484   6.605  10.644  0.8026 -0.6498 -0.7306
10435SOL     OW32745   6.034   7.352   4.504 -0.9384  0.2843  0.3626
10435SOL    HW132746   6.029   7.447   4.518 -1.5377  0.3817 -0.4380
10435SOL    HW232747   6.126   7.337   4.483 -0.5400  0.4741  1.8810
10436SOL     OW32748   2.401   6.818   5.613  0.2621  0.2301  0.7723
10436SOL    HW132749   2.317   6.790   5.576  0.8226 -0.9506  0.3074
10436SOL    HW232750   2.386   6.908   5.642 -0.3103  1.2033 -2.1451
10437SOL     OW32751   3.013   2.345   2.697  0.1375 -0.4823  0.1224
10437SOL    HW132752   3.001   2.430   2.656 -0.8935 -0.6001  0.1497
10437SOL    HW232753   2.927   2.324   2.734  0.3069 -1.6610 -0.1263
10438SOL     OW32754   6.308   0.750   3.670  0.3327  0.3930  0.3950
10438SOL    HW132755   6.351   0.684   3.724  0.5688 -0.8386 -1.2082
10438SOL    HW232756   6.225   0.768   3.715 -0.0117 -1.4599  0.5833
10439SOL     OW32757   7.588   3.999   6.137 -0.1481  0.2896 -0.4861
10439SOL    HW132758   7.645   3.922   6.135 -1.2015 -0.5471 -3.1910
10439SOL    HW232759   7.599   4.035   6.225  3.6110 -0.4737 -0.4770
10440SOL     OW32760   5.946   3.397   2.529 -0.1937 -0.2150 -0.4233
10440SOL    HW132761   5.979   3.470   2.582 -0.3647  0.3218 -1.0446
10440SOL    HW232762   6.008   3.326   2.546  0.0672  0.1199  0.0690
10441SOL     OW32763   6.482   7.631  10.602  0.4763 -0.0052 -0.7153
10441SOL    HW132764   6.559   7.602  10.650  0.2601 -2.0484 -1.5100
10441SOL    HW232765   6.505   7.619  10.510 -0.2122  0.9462 -1.0275
10442SOL     OW32766   5.599   2.825   1.319 -0.2363  0.3789 -0.0692
10442SOL    HW132767   5.580   2.733   1.298 -1.2054  0.0495  1.9762
10442SOL    HW232768   5.644   2.821   1.404  1.3008  1.7312 -0.7685
10443SOL     OW32769   7.563   7.680   0.138 -0.4271 -0.6553 -0.2502
10443SOL    HW132770   7.486   7.675   0.081  1.2557 -1.0038 -2.5952
10443SOL    HW232771   7.560   7.769   0.174 -1.0444 -0.0907 -1.6212
10444SOL     OW32772   6.500   2.544   3.391 -0.1132 -0.2046 -0.4542
10444SOL    HW132773   6.578   2.534   3.337 -1.7916 -2.6391 -2.6790
10444SOL    HW232774   6.506   2.473   3.455 -0.0290  0.2476  0.0479
10445SOL     OW32775   1.375   3.697   0.993  0.0044 -0.0080  0.2715
10445SOL    HW132776   1.437   3.692   0.920 -0.0319 -0.9566  0.2979
10445SOL    HW232777   1.380   3.611   1.035 -1.0211  0.0436  0.5256
10446SOL     OW32778   6.230   6.702  10.172  0.6320  0.3940 -0.1799
10446SOL    HW132779   6.217   6.736  10.261  1.3146 -0.1474  0.1337
10446SOL    HW232780   6.316   6.734  10.147  0.2404  0.9615 -0.8548
10447SOL     OW32781   7.231   7.858  10.675 -0.2897  0.2704  0.1435
10447SOL    HW132782   7.228   7.953  10.664  1.1922  0.1348 -2.4551
10447SOL    HW232783   7.310   7.842  10.726  0.9360  0.4204 -1.5881
10448SOL     OW32784   7.320   6.666   1.957 -0.2613 -0.5518 -0.9973
10448SOL    HW132785   7.328   6.699   2.046  2.6592 -0.4726 -1.2010
10448SOL    HW232786   7.377   6.589   1.954 -3.0734 -2.8315 -1.8916
10449SOL     OW32787   5.822   4.245   7.568 -0.1331  0.1322  0.2526
10449SOL    HW132788   5.833   4.173   7.506  0.9824 -0.6366  1.3116
10449SOL    HW232789   5.728   4.244   7.589 -0.4363  0.0851 -1.0016
10450SOL     OW32790   6.714   5.926   8.421  0.1401 -0.6416 -0.2051
10450SOL    HW132791   6.798   5.897   8.386  1.1634  1.3112  0.4960
10450SOL    HW232792   6.662   5.946   8.343  1.4180  0.9871 -0.7041
10451SOL     OW32793   5.350   5.241  11.645  0.1237 -0.0755  0.3837
10451SOL    HW132794   5.277   5.181  11.630 -0.3909  0.1307  1.9615
10451SOL    HW232795   5.310   5.322  11.677  0.7396  1.4657 -2.4191
10452SOL     OW32796   1.814   4.752   1.610 -0.2053 -0.1624  0.3357
10452SOL    HW132797   1.866   4.832   1.615 -0.6733  0.0738  1.9128
10452SOL    HW232798   1.811   4.731   1.517  1.1431  0.8402  0.0391
10453SOL     OW32799   7.163   4.870   8.729 -0.3938  0.1401  0.2749
10453SOL    HW132800   7.122   4.944   8.775  0.3300  0.2123  0.8028
10453SOL    HW232801   7.089   4.824   8.688 -1.0856 -0.1367  1.7915
10454SOL     OW32802   1.489   3.679  12.120  0.3977  0.1496  0.2079
10454SOL    HW132803   1.404   3.642  12.095  0.0771  0.3026  1.0478
10454SOL    HW232804   1.469   3.767  12.151  0.8170  0.0770  0.6988
10455SOL     OW32805   0.875   0.430   3.023  0.0162  0.2624  0.0507
10455SOL    HW132806   0.839   0.402   3.107 -1.8649 -0.3959 -0.9099
10455SOL    HW232807   0.957   0.474   3.045 -0.8872  0.9366  2.2903
10456SOL     OW32808   1.312   7.712   1.132  0.0201  0.4349  0.6862
10456SOL    HW132809   1.371   7.740   1.202 -2.0949  1.0701  2.3079
10456SOL    HW232810   1.313   7.783   1.068  1.9397 -0.1343  0.0190
10457SOL     OW32811   2.592   0.643   9.143  0.3496  0.9498 -0.3699
10457SOL    HW132812   2.590   0.659   9.237  1.3830 -1.1940  0.0603
10457SOL    HW232813   2.504   0.614   9.121  0.8424 -1.4034  0.5377
10458SOL     OW32814   4.253   6.216   2.196 -0.1310 -0.0644 -0.0309
10458SOL    HW132815   4.255   6.178   2.284 -2.2388 -1.2154 -0.3939
10458SOL    HW232816   4.313   6.290   2.200  0.0153 -0.2272  2.3112
10459SOL     OW32817   5.779   0.115  10.270  0.2558  0.3071  0.9289
10459SOL    HW132818   5.748   0.092  10.183  1.6598  0.3325  0.3960
10459SOL    HW232819   5.763   0.037  10.323 -1.1305  0.4890  0.8110
10460SOL     OW32820   7.800   3.371   7.744 -0.0155  0.2739 -0.0308
10460SOL    HW132821   7.730   3.436   7.734 -0.5614 -0.1577  0.8217
10460SOL    HW232822   7.761   3.289   7.714  0.6122  0.2931 -0.9337
10461SOL     OW32823   4.510   2.477  11.853 -0.5678  0.4646 -0.0118
10461SOL    HW132824   4.602   2.472  11.827 -0.0136 -0.5278  1.9428
10461SOL    HW232825   4.494   2.570  11.870  0.2575  0.5634  0.2405
10462SOL     OW32826   5.226   2.720   7.998  0.5351  0.5406 -0.2723
10462SOL    HW132827   5.264   2.695   8.082  0.5197  0.7964 -0.1891
10462SOL    HW232828   5.300   2.727   7.938  0.5600  0.4897 -0.2474
10463SOL     OW32829   2.691   7.592   9.604  0.4772  0.3366 -0.5082
10463SOL    HW132830   2.752   7.664   9.590  0.7234  0.1140 -0.5686
10463SOL    HW232831   2.609   7.623   9.565  0.4773  0.7375 -0.1974
10464SOL     OW32832   2.100   3.783  10.512 -0.0674  0.4288  0.7791
10464SOL    HW132833   2.178   3.735  10.486 -0.1599  0.3612  0.6252
10464SOL    HW232834   2.052   3.722  10.568 -1.2396 -0.4750 -1.1024
10465SOL     OW32835   6.868   5.852   1.228  0.3495 -0.1636 -0.1912
10465SOL    HW132836   6.897   5.788   1.163 -1.7436 -0.9559 -0.4290
10465SOL    HW232837   6.847   5.800   1.305  1.5211  0.6183  0.6856
10466SOL     OW32838   0.419   4.731  12.305  0.5891  0.1110  0.6557
10466SOL    HW132839   0.404   4.660  12.242  0.0199 -0.9646  1.9526
10466SOL    HW232840   0.509   4.718  12.334  0.3996 -0.2594  1.0901
10467SOL     OW32841   7.234   6.117   5.212  0.3621  0.5284  0.3989
10467SOL    HW132842   7.261   6.134   5.121  0.5082  1.1931  0.5618
10467SOL    HW232843   7.173   6.187   5.232 -3.6328 -2.2712 -0.7820
10468SOL     OW32844   6.268   6.067   7.889  0.0778 -0.4614 -0.0170
10468SOL    HW132845   6.230   6.012   7.958 -0.5650 -2.2691 -1.6904
10468SOL    HW232846   6.194   6.084   7.830  0.9429 -0.3924 -1.1114
10469SOL     OW32847   3.132   7.209   1.043 -0.1484  0.5045 -0.1247
10469SOL    HW132848   3.083   7.251   0.973  0.0831  1.3750  0.2202
10469SOL    HW232849   3.173   7.282   1.091  1.0944 -0.1560 -0.1260
10470SOL     OW32850   6.926   6.490   8.586 -0.4124  0.1345 -0.1309
10470SOL    HW132851   6.991   6.421   8.593 -1.2681 -1.0075 -2.3608
10470SOL    HW232852   6.941   6.529   8.500 -0.5845  2.1178  0.6686
10471SOL     OW32853   0.161   1.522  11.007 -0.0195 -0.0439 -0.1438
10471SOL    HW132854   0.216   1.594  11.037 -0.0275 -0.3235  0.5587
10471SOL    HW232855   0.214   1.443  11.021 -0.6548 -0.3318  0.7052
10472SOL     OW32856   5.761   3.607   7.030 -0.1191 -0.4177 -0.1105
10472SOL    HW132857   5.699   3.535   7.039 -1.3019  0.8334  3.6682
10472SOL    HW232858   5.737   3.649   6.947 -1.6759 -2.2734 -0.6789
10473SOL     OW32859   1.487   3.632   5.106  0.4776  0.2805  0.3019
10473SOL    HW132860   1.552   3.583   5.156 -0.2174  0.4790  1.4489
10473SOL    HW232861   1.403   3.596   5.134  0.0281  1.0493 -0.0191
10474SOL     OW32862   1.481   0.415   2.720  0.7294 -0.2324  0.6184
10474SOL    HW132863   1.481   0.321   2.739  0.8728 -0.5830 -1.0270
10474SOL    HW232864   1.538   0.453   2.787 -0.1000 -1.1711  1.9001
10475SOL     OW32865   4.980   0.715   8.842  0.0344  0.5360  0.6026
10475SOL    HW132866   5.037   0.651   8.801 -0.2388  0.5754  0.1497
10475SOL    HW232867   5.020   0.800   8.822 -0.6967  0.6250 -0.5622
10476SOL     OW32868   0.405   7.234   4.017 -0.6546  0.3004  0.0192
10476SOL    HW132869   0.406   7.144   4.051 -0.1815 -0.2815 -1.4483
10476SOL    HW232870   0.478   7.276   4.062 -0.9210 -0.0115  0.7746
10477SOL     OW32871   3.848   6.106   0.391  0.5778  0.6485 -0.5611
10477SOL    HW132872   3.874   6.164   0.463 -1.1532  1.4878 -0.5548
10477SOL    HW232873   3.842   6.165   0.315 -3.3064  1.0712 -0.1279
10478SOL     OW32874   4.996   1.986   9.890 -0.5156 -0.0933  0.0847
10478SOL    HW132875   5.058   2.057   9.871  1.7971 -1.8554  0.7399
10478SOL    HW232876   5.037   1.908   9.854 -1.3345 -1.6814  2.4109
10479SOL     OW32877   6.631   2.292   2.427 -0.1347 -0.7408 -0.4988
10479SOL    HW132878   6.659   2.355   2.360  0.5646  1.2463  1.5351
10479SOL    HW232879   6.706   2.234   2.440  1.6420  1.8393  1.8201
10480SOL     OW32880   4.439   4.892   1.013 -0.4405  0.9376 -0.2011
10480SOL    HW132881   4.498   4.915   0.942  0.1799  0.4005  0.1264
10480SOL    HW232882   4.397   4.974   1.038  1.6723  1.7358  0.9174
10481SOL     OW32883   4.533   6.660   6.470 -0.2299 -0.3328  0.0324
10481SOL    HW132884   4.571   6.606   6.540 -0.7437 -0.7130  0.0248
10481SOL    HW232885   4.607   6.709   6.435  0.2154 -0.8907  0.1720
10482SOL     OW32886   7.227   0.855  12.329 -0.4276  0.3980  0.0794
10482SOL    HW132887   7.136   0.871  12.301 -0.1482  0.2542 -0.9437
10482SOL    HW232888   7.266   0.807  12.257  0.8943  1.7786 -0.1786
10483SOL     OW32889   0.733   5.353  10.504  0.1555 -0.0799  0.1358
10483SOL    HW132890   0.751   5.267  10.541  0.9045  0.4321  1.0074
10483SOL    HW232891   0.797   5.362  10.433  0.5322  0.0248  0.4840
10484SOL     OW32892   0.784   3.364   6.114  1.0539  0.2385  0.1253
10484SOL    HW132893   0.848   3.337   6.179  0.3051  1.1431  1.2777
10484SOL    HW232894   0.700   3.333   6.149  0.7892 -0.5464 -1.1437
10485SOL     OW32895   4.379   6.000  11.330 -0.5331 -0.3947 -0.0292
10485SOL    HW132896   4.303   6.032  11.282 -0.7490 -0.4674  0.2592
10485SOL    HW232897   4.354   5.911  11.357 -0.1387 -0.6210 -0.3902
10486SOL     OW32898   5.458   4.503   4.596  0.5525  0.4373  0.1602
10486SOL    HW132899   5.463   4.506   4.500  1.2725  2.4684  0.2052
10486SOL    HW232900   5.469   4.594   4.623 -2.3487  0.3435  2.0808
10487SOL     OW32901   4.885   2.789   8.952  0.2086 -0.4388  0.0384
10487SOL    HW132902   4.957   2.842   8.986 -0.3690  1.0984 -1.0212
10487SOL    HW232903   4.851   2.840   8.879 -1.3505 -1.5881 -0.0756
10488SOL     OW32904   7.751   3.280   8.970 -0.0979 -0.1680  0.1661
10488SOL    HW132905   7.753   3.375   8.961  1.9603  0.0758  2.3819
10488SOL    HW232906   7.674   3.263   9.024 -1.6226 -0.0228 -1.8332
10489SOL     OW32907   3.098   1.904   7.112  0.2596  0.6396  0.0260
10489SOL    HW132908   3.181   1.928   7.154  1.1318 -0.7533 -0.8006
10489SOL    HW232909   3.082   1.815   7.142  1.0655 -0.5298 -2.6968
10490SOL     OW32910   6.985   4.801   6.556 -0.1666 -0.2455 -0.0330
10490SOL    HW132911   7.035   4.832   6.480 -1.4034 -0.2995 -0.8949
10490SOL    HW232912   6.935   4.726   6.523  1.2327 -1.9479  1.5072
10491SOL     OW32913   7.537   4.745   6.059 -0.6688  0.1100 -0.3070
10491SOL    HW132914   7.591   4.798   6.118 -0.4618  0.1975 -0.5716
10491SOL    HW232915   7.579   4.659   6.060 -1.3773 -0.2484  0.6273
10492SOL     OW32916   4.275   7.206   6.438  0.3542  0.1582 -0.5570
10492SOL    HW132917   4.266   7.135   6.501  0.5637  0.3813 -0.2739
10492SOL    HW232918   4.244   7.169   6.355  0.5558 -0.2960 -0.4318
10493SOL     OW32919   6.019   6.452   2.983  0.6658  0.1899  0.1429
10493SOL    HW132920   6.043   6.538   2.950 -0.0334  0.5427  0.5169
10493SOL    HW232921   5.947   6.469   3.044 -1.5972 -0.9055 -1.9997
10494SOL     OW32922   3.425   4.801   0.882 -0.0116 -0.9832  0.2432
10494SOL    HW132923   3.379   4.740   0.824 -1.4577 -0.8591  1.1827
10494SOL    HW232924   3.491   4.843   0.827  0.0929 -2.3984 -0.7560
10495SOL     OW32925   7.821   6.409   6.512  0.3930 -0.2709  0.4886
10495SOL    HW132926   7.809   6.490   6.462  2.0100  0.8222  1.7737
10495SOL    HW232927   7.781   6.341   6.458  1.8003  0.8887 -2.1355
10496SOL     OW32928   1.872   4.329   7.695  0.0655 -0.2241  0.1829
10496SOL    HW132929   1.963   4.301   7.705 -0.7479 -2.9665  0.6314
10496SOL    HW232930   1.864   4.350   7.602  1.3416  0.9647  0.3000
10497SOL     OW32931   4.590   0.605   6.217 -0.0930 -0.0177 -0.3258
10497SOL    HW132932   4.579   0.609   6.122  0.4637  0.6848 -0.3651
10497SOL    HW232933   4.676   0.644   6.233  0.7510 -1.9804  0.2776
10498SOL     OW32934   1.078   5.700   2.234  0.5413 -0.3803 -0.1750
10498SOL    HW132935   1.077   5.786   2.194  0.8454 -0.0659  0.4727
10498SOL    HW232936   1.103   5.716   2.326  0.9085 -1.1767 -0.1190
10499SOL     OW32937   4.422   1.441  10.011  0.3694 -0.2363 -0.0090
10499SOL    HW132938   4.463   1.373   9.958  0.0102 -0.5834  0.1521
10499SOL    HW232939   4.444   1.523   9.967 -0.4429 -0.5582 -1.0533
10500SOL     OW32940   5.139   4.354   5.346  0.4313 -0.0514 -0.0170
10500SOL    HW132941   5.053   4.368   5.307  0.3539  0.1691  0.2294
10500SOL    HW232942   5.141   4.414   5.421  1.1327  0.5881 -0.5310
10501SOL     OW32943   4.765   3.073  10.807  0.2676  0.3793 -0.7242
10501SOL    HW132944   4.853   3.062  10.843  0.0121  2.6954  0.7751
10501SOL    HW232945   4.706   3.062  10.882 -0.4964  2.0170 -1.0446
10502SOL     OW32946   6.109   2.376   4.270 -0.1910 -0.2822  0.3625
10502SOL    HW132947   6.174   2.361   4.201 -0.7260 -0.1398 -0.1860
10502SOL    HW232948   6.037   2.421   4.225 -0.8367 -0.7935  0.8664
10503SOL     OW32949   0.620   3.995  10.400  0.8684  0.4525 -0.3764
10503SOL    HW132950   0.625   3.985  10.495 -2.8127 -1.6406 -0.2298
10503SOL    HW232951   0.537   4.041  10.385  1.8538  1.6632 -2.6079
10504SOL     OW32952   0.678   6.351  10.587 -0.3182  1.0289  0.2801
10504SOL    HW132953   0.731   6.280  10.550  0.1040  0.7337  1.4239
10504SOL    HW232954   0.616   6.373  10.517 -0.4192 -0.4141 -0.1129
10505SOL     OW32955   5.966   5.534   7.382 -0.5155 -0.5972  0.1061
10505SOL    HW132956   5.970   5.519   7.287  1.6558  2.2933 -0.3993
10505SOL    HW232957   5.899   5.601   7.392 -2.1019 -2.2223  0.9405
10506SOL     OW32958   0.813   2.889   6.879  0.4482 -0.1087 -0.1559
10506SOL    HW132959   0.790   2.960   6.819 -1.6204 -1.0934 -0.6155
10506SOL    HW232960   0.764   2.909   6.959  1.2637 -0.1136  0.3623
10507SOL     OW32961   4.736   1.004   5.508  0.2290  0.3411  0.3731
10507SOL    HW132962   4.698   1.052   5.582 -1.7623  0.6128 -0.7492
10507SOL    HW232963   4.762   1.072   5.446 -0.6832  0.0544 -0.3406
10508SOL     OW32964   3.560   6.321   9.786  0.0608 -0.3693 -0.7073
10508SOL    HW132965   3.553   6.417   9.789 -1.5334 -0.4915  0.5697
10508SOL    HW232966   3.470   6.291   9.775  0.3702 -1.7615  0.4038
10509SOL     OW32967   5.595   1.896   6.089 -0.5531 -0.7929  0.5368
10509SOL    HW132968   5.620   1.804   6.097  1.2872 -0.2672  1.5536
10509SOL    HW232969   5.668   1.937   6.042 -0.2587  0.5182  2.0322
10510SOL     OW32970   0.690   2.825   3.654 -0.2142  0.0438 -0.2895
10510SOL    HW132971   0.640   2.903   3.632  0.0629 -0.0225 -1.1873
10510SOL    HW232972   0.636   2.779   3.718 -0.0668  1.3100  0.7796
10511SOL     OW32973   5.465   0.540   3.186  0.0786  0.3116  0.3151
10511SOL    HW132974   5.432   0.544   3.096 -1.1284 -1.4330  0.6253
10511SOL    HW232975   5.531   0.608   3.191 -1.0171  1.5702 -1.4127
10512SOL     OW32976   7.753   1.716  10.903 -0.1663 -0.3235 -0.5878
10512SOL    HW132977   7.834   1.721  10.853 -0.5656  0.0840 -1.2004
10512SOL    HW232978   7.713   1.803  10.893 -0.6543 -0.5015 -0.2436
10513SOL     OW32979   1.650   1.186   7.142  0.1964 -0.2437 -0.2539
10513SOL    HW132980   1.569   1.236   7.155 -0.3352 -0.6567 -1.7043
10513SOL    HW232981   1.700   1.239   7.079  1.1750  0.1205  0.8087
10514SOL     OW32982   0.188   7.070   6.760 -0.3270 -0.1151 -0.1002
10514SOL    HW132983   0.168   7.007   6.829  0.5013  0.7065  0.9023
10514SOL    HW232984   0.102   7.098   6.728 -0.7552 -2.5550 -1.3797
10515SOL     OW32985   1.008   6.716   6.260  0.2672  0.8441  0.2400
10515SOL    HW132986   1.065   6.780   6.303  0.1602  0.3911  1.0933
10515SOL    HW232987   0.920   6.755   6.267 -0.0103  0.0428  1.9918
10516SOL     OW32988   1.506   7.361  10.055  0.9602 -0.5504 -0.5673
10516SOL    HW132989   1.427   7.309  10.067  0.5880 -0.2372 -1.5236
10516SOL    HW232990   1.474   7.449  10.035  1.5747  0.0479  0.9476
10517SOL     OW32991   6.332   5.472   3.049  0.1718  0.1812  0.4128
10517SOL    HW132992   6.339   5.529   2.973  0.9956  1.6446  1.5334
10517SOL    HW232993   6.409   5.415   3.044  0.3619  0.4482  0.2781
10518SOL     OW32994   0.758   6.606   2.800  0.4320  0.1164  0.4367
10518SOL    HW132995   0.837   6.607   2.747 -0.4998  1.4619 -1.0377
10518SOL    HW232996   0.693   6.651   2.746 -1.2621 -0.6793  1.7192
10519SOL     OW32997   1.414   5.165   9.165 -0.0744 -0.0712 -0.1958
10519SOL    HW132998   1.433   5.083   9.211  0.6322  0.3416  0.2676
10519SOL    HW232999   1.323   5.184   9.187 -0.0128 -0.3426  0.3157
10520SOL     OW33000   4.827   7.869   8.420 -0.0025  0.1191 -0.2715
10520SOL    HW133001   4.898   7.858   8.356 -0.7547 -3.6035 -0.7285
10520SOL    HW233002   4.748   7.847   8.371 -0.6472 -2.5774  1.7168
10521SOL     OW33003   3.461   4.859  11.505 -0.0611 -0.1098 -0.5082
10521SOL    HW133004   3.487   4.907  11.426  1.6974  2.0093  1.2408
10521SOL    HW233005   3.408   4.921  11.555  0.4883 -0.7053  0.8632
10522SOL     OW33006   6.884   0.953   8.238 -0.1371  0.1727 -0.0861
10522SOL    HW133007   6.793   0.974   8.214  0.2716  1.6798 -0.4747
10522SOL    HW233008   6.879   0.919   8.327 -1.2326 -1.2372 -0.6504
10523SOL     OW33009   1.992   7.216   0.279 -0.3081  0.0027 -0.3995
10523SOL    HW133010   2.040   7.271   0.218 -0.2713  1.6531  1.0434
10523SOL    HW233011   1.901   7.239   0.266 -0.2681  0.7003  0.4343
10524SOL     OW33012   4.949   1.776   8.334 -0.2639  0.5079  0.1484
10524SOL    HW133013   4.866   1.758   8.377 -0.3615  0.3240 -0.1153
10524SOL    HW233014   5.000   1.825   8.399 -0.5676  0.5993  0.3166
10525SOL     OW33015   3.362   0.566   8.891  0.6163  0.3919  0.6223
10525SOL    HW133016   3.292   0.503   8.905 -1.1358  2.5821  2.6782
10525SOL    HW233017   3.403   0.576   8.977  0.5253  2.3005  0.4920
10526SOL     OW33018   3.855   3.685   1.133 -1.2159 -0.1574 -0.6608
10526SOL    HW133019   3.892   3.765   1.096  0.9682 -1.4179 -1.4138
10526SOL    HW233020   3.822   3.711   1.219 -0.9567  1.6150 -1.0533
10527SOL     OW33021   1.269   0.599   1.745 -0.1905  0.0815  0.1225
10527SOL    HW133022   1.255   0.506   1.727  0.2495  0.4711 -2.6457
10527SOL    HW233023   1.363   0.606   1.761 -0.2693  0.0217  0.6262
10528SOL     OW33024   4.951   2.795   1.270 -0.3105 -0.3650 -0.3279
10528SOL    HW133025   4.959   2.784   1.364 -1.7200 -1.3269 -0.2843
10528SOL    HW233026   4.990   2.716   1.233  2.3391  1.0108 -0.7115
10529SOL     OW33027   7.415   1.659  12.373  0.2039 -0.1600  0.5515
10529SOL    HW133028   7.394   1.748  12.401  0.9234 -0.1649  1.1583
10529SOL    HW233029   7.511   1.658  12.367  0.1061 -0.2780 -1.6212
10530SOL     OW33030   4.826   7.565   7.663 -0.5716 -0.9491 -0.0351
10530SOL    HW133031   4.803   7.598   7.576 -0.4978  0.3139  0.4081
10530SOL    HW233032   4.744   7.527   7.696 -0.5691 -1.5443 -0.6959
10531SOL     OW33033   3.323   7.285  11.752 -0.2985 -0.4536  0.3886
10531SOL    HW133034   3.252   7.345  11.726  1.1971  1.4911  0.5626
10531SOL    HW233035   3.365   7.329  11.826  1.7084 -1.0396 -0.3415
10532SOL     OW33036   5.911   3.724   3.205 -0.0502  0.4478  0.2244
10532SOL    HW133037   5.939   3.800   3.256 -1.2529  1.7497 -0.9764
10532SOL    HW233038   5.985   3.705   3.147  1.5037 -1.2986  2.5661
10533SOL     OW33039   2.842   6.648   7.590 -0.1274 -0.3251  0.3159
10533SOL    HW133040   2.798   6.726   7.557  1.3043  0.4096  0.0740
10533SOL    HW233041   2.804   6.576   7.540 -1.5962  0.1697  0.6698
10534SOL     OW33042   2.281   7.152   2.538 -0.0911 -0.1484 -0.0543
10534SOL    HW133043   2.293   7.110   2.623 -0.0222  0.0908  0.0557
10534SOL    HW233044   2.198   7.199   2.546 -0.6178 -0.9756 -0.4728
10535SOL     OW33045   3.991   1.541   2.905  0.5291 -0.5069 -0.1624
10535SOL    HW133046   3.960   1.566   2.992  0.4699 -1.7887  0.2164
10535SOL    HW233047   3.921   1.486   2.870  0.0023  0.9868 -1.5421
10536SOL     OW33048   4.879   7.272  11.259 -0.0164  0.0011 -0.9636
10536SOL    HW133049   4.786   7.259  11.240 -0.2238 -0.5320  0.3041
10536SOL    HW233050   4.880   7.311  11.347  0.9931 -1.4474 -0.3005
10537SOL     OW33051   2.621   6.235   2.807 -0.0803 -0.4721  0.5342
10537SOL    HW133052   2.695   6.180   2.832  0.5827 -0.3582 -1.0384
10537SOL    HW233053   2.560   6.227   2.880  1.1631 -1.1379  1.5526
10538SOL     OW33054   5.888   7.359  11.623 -0.2957  0.3015 -0.2782
10538SOL    HW133055   5.805   7.390  11.586  0.5366  2.3625 -0.5270
10538SOL    HW233056   5.918   7.293  11.560 -1.7955 -0.6309 -0.0824
10539SOL     OW33057   0.779   4.262  11.174  0.3135 -0.3269  0.1952
10539SOL    HW133058   0.721   4.335  11.154  0.4834 -0.7104 -1.8766
10539SOL    HW233059   0.726   4.184  11.159  0.7258 -0.6562  0.4359
10540SOL     OW33060   1.792   2.635   4.132 -0.2274 -0.0513  0.0513
10540SOL    HW133061   1.824   2.662   4.218 -2.5372 -1.1472  1.3356
10540SOL    HW233062   1.697   2.627   4.143 -1.0549  2.6152 -3.3992
10541SOL     OW33063   5.788   5.126   3.239 -0.7193 -0.0839 -0.1524
10541SOL    HW133064   5.800   5.198   3.178 -0.0476  1.2572  1.4707
10541SOL    HW233065   5.875   5.085   3.245 -0.0990  1.3717  1.7203
10542SOL     OW33066   2.859   6.704   0.825  0.6068  0.5603 -0.3885
10542SOL    HW133067   2.904   6.671   0.903 -1.3597  2.3333  1.6225
10542SOL    HW233068   2.798   6.634   0.801  0.6313  0.3422  0.1801
10543SOL     OW33069   6.425   6.712   8.847  0.5505  0.0077 -0.0561
10543SOL    HW133070   6.450   6.621   8.860 -1.1600 -0.0782  4.0275
10543SOL    HW233071   6.331   6.708   8.826  0.1006  0.8167  1.6676
10544SOL     OW33072   6.095   7.787   8.370 -0.5837 -0.3828 -0.4238
10544SOL    HW133073   6.079   7.709   8.423 -1.0255 -0.2467 -0.3490
10544SOL    HW233074   6.012   7.835   8.373  0.0851  0.7615  0.6605
10545SOL     OW33075   5.058   4.835   0.106 -0.2574 -0.2030 -0.3724
10545SOL    HW133076   5.054   4.774   0.032  1.5695 -0.1493 -0.5692
10545SOL    HW233077   5.001   4.907   0.080 -0.8926 -0.9183 -1.0167
10546SOL     OW33078   6.965   2.939   6.332  0.1744 -0.3401  0.1299
10546SOL    HW133079   7.040   2.974   6.284  0.5264  0.9742  1.5588
10546SOL    HW233080   6.917   3.016   6.362 -0.5704 -1.1202  1.0340
10547SOL     OW33081   1.559   0.617   4.618  0.2950  0.1285 -0.6603
10547SOL    HW133082   1.520   0.675   4.552 -3.2169  2.7411  3.2194
10547SOL    HW233083   1.495   0.547   4.630  0.8355 -0.2521  0.1142
10548SOL     OW33084   3.431   2.829   1.707  0.6421  0.8534  0.5855
10548SOL    HW133085   3.400   2.856   1.621  1.9763  1.2257  0.1878
10548SOL    HW233086   3.527   2.824   1.697  0.8197  0.9459  2.0565
10549SOL     OW33087   6.592   2.235  11.776  0.4099 -0.4582 -0.0249
10549SOL    HW133088   6.652   2.164  11.751  0.8102  0.0968 -0.6613
10549SOL    HW233089   6.540   2.251  11.697  1.5855  1.2098 -0.5159
10550SOL     OW33090   3.948   0.972  10.880 -0.0563 -0.0690  0.6984
10550SOL    HW133091   4.032   0.998  10.840 -0.7093  1.9524  0.4856
10550SOL    HW233092   3.972   0.930  10.962  1.1929  1.3315  1.1088
10551SOL     OW33093   6.061   4.000  10.650 -0.1415  0.2553  0.2168
10551SOL    HW133094   6.046   3.973  10.559 -1.6242  2.9063 -0.4363
10551SOL    HW233095   5.975   3.996  10.691  0.6092 -1.4634  1.7379
10552SOL     OW33096   0.781   1.439   5.254 -0.0971  0.5848  0.5071
10552SOL    HW133097   0.742   1.440   5.167 -0.7067  0.6234  0.7754
10552SOL    HW233098   0.710   1.410   5.312  0.1363  1.1203  1.0724
10553SOL     OW33099   5.355   2.696   5.536  0.5383  0.4271 -0.1001
10553SOL    HW133100   5.310   2.774   5.505  0.8719  0.3256 -0.8596
10553SOL    HW233101   5.448   2.718   5.531  0.7335 -0.6312 -2.1165
10554SOL     OW33102   7.551   2.619   7.955 -0.0163 -0.1536 -0.2501
10554SOL    HW133103   7.643   2.592   7.956  0.1910  0.5317  0.3497
10554SOL    HW233104   7.554   2.714   7.949 -0.6403 -0.0001  1.2328
10555SOL     OW33105   2.324   2.783   6.909 -0.8175 -0.9751 -0.1322
10555SOL    HW133106   2.349   2.762   6.999 -1.3032  0.3024  0.3160
10555SOL    HW233107   2.375   2.722   6.856  2.5459  0.7951  0.7866
10556SOL     OW33108   0.684   2.954   9.978 -0.4759 -0.1851 -0.1533
10556SOL    HW133109   0.704   2.989  10.065  1.2765 -0.1364 -0.5415
10556SOL    HW233110   0.596   2.986   9.959 -0.9265 -0.2583  1.6217
10557SOL     OW33111   1.169   4.067   6.396 -0.0005  0.1363  0.0904
10557SOL    HW133112   1.211   4.002   6.453 -0.3612 -0.6707 -0.5373
10557SOL    HW233113   1.189   4.037   6.308 -0.0457  0.9831 -0.2163
10558SOL     OW33114   3.389   1.822  10.254  0.2911 -0.1302  0.0794
10558SOL    HW133115   3.328   1.776  10.310 -0.4521  0.4283 -0.2607
10558SOL    HW233116   3.348   1.821  10.167  1.7464 -1.6325 -0.6497
10559SOL     OW33117   2.004   1.451   2.909 -0.3730  0.1348 -0.2945
10559SOL    HW133118   1.912   1.424   2.906 -0.2259 -0.3124 -1.3679
10559SOL    HW233119   2.000   1.547   2.904 -0.8248  0.2324  1.4181
10560SOL     OW33120   5.399   2.066   7.057 -0.1151 -0.0158 -0.4175
10560SOL    HW133121   5.451   2.132   7.102  0.3570  0.0650 -1.0678
10560SOL    HW233122   5.336   2.116   7.005 -0.1447 -0.0867 -0.4506
10561SOL     OW33123   5.073   4.327   5.640 -0.0574 -0.1860 -0.0159
10561SOL    HW133124   5.030   4.270   5.702  0.6484 -0.4659  0.2251
10561SOL    HW233125   5.005   4.389   5.612 -0.8473 -1.1724 -0.3357
10562SOL     OW33126   4.382   6.609  11.547 -0.0175 -0.8889 -0.1190
10562SOL    HW133127   4.420   6.688  11.587 -0.5212  0.0318 -1.3789
10562SOL    HW233128   4.300   6.639  11.509 -0.5233 -2.1862 -0.0978
10563SOL     OW33129   3.997   3.115   2.280 -0.4788  0.2571  0.1709
10563SOL    HW133130   4.010   3.208   2.299 -1.8923  0.2583  1.2418
10563SOL    HW233131   4.073   3.071   2.319  0.6591  1.0020 -1.1021
10564SOL     OW33132   2.180   3.855   8.666 -0.2623  0.2166 -0.4934
10564SOL    HW133133   2.251   3.791   8.660  0.4382  1.0963 -2.7116
10564SOL    HW233134   2.220   3.930   8.710 -0.3327  0.0791 -0.1930
10565SOL     OW33135   4.990   6.736   0.590 -0.6035 -0.2369 -0.1652
10565SOL    HW133136   4.918   6.736   0.653 -1.7257 -0.6993 -1.3986
10565SOL    HW233137   5.043   6.659   0.614 -1.1958 -0.5922  0.0134
10566SOL     OW33138   1.061   5.082   9.200 -0.2454  0.3337  0.5051
10566SOL    HW133139   1.131   5.104   9.261 -0.3856  0.9613  0.4390
10566SOL    HW233140   0.984   5.066   9.255 -0.6798  2.0568  0.4407
10567SOL     OW33141   5.608   0.409   4.511  0.0988 -0.2005 -0.1481
10567SOL    HW133142   5.616   0.501   4.537 -0.2564 -0.1791 -0.1098
10567SOL    HW233143   5.697   0.374   4.519 -0.1650 -0.5032  2.3085
10568SOL     OW33144   4.894   0.064   5.783 -0.1600  0.0269  0.2898
10568SOL    HW133145   4.871   0.144   5.736  0.1829 -1.6725 -3.0690
10568SOL    HW233146   4.824   0.002   5.762 -0.1142 -0.8164  2.3029
10569SOL     OW33147   0.633   5.165   9.438  0.4470 -0.1259  0.0067
10569SOL    HW133148   0.686   5.187   9.362  0.6263  1.3310  0.5074
10569SOL    HW233149   0.695   5.164   9.511  0.0312  0.1874  0.3763
10570SOL     OW33150   3.434   4.772   3.104  0.2787  0.5456  0.2965
10570SOL    HW133151   3.410   4.695   3.156  1.1502  1.0677  1.5082
10570SOL    HW233152   3.529   4.769   3.099  0.2000 -0.1802 -2.4135
10571SOL     OW33153   2.125   3.841   2.345  0.4461  0.3707  0.2849
10571SOL    HW133154   2.182   3.871   2.274 -0.8492 -0.8780 -1.3941
10571SOL    HW233155   2.118   3.747   2.332 -2.6389  0.5428 -0.1895
10572SOL     OW33156   2.436   3.252   6.628 -0.1074 -0.3331 -0.2833
10572SOL    HW133157   2.468   3.285   6.711 -2.5334  0.4762  0.4153
10572SOL    HW233158   2.382   3.176   6.651  0.1353 -0.8173 -1.2431
10573SOL     OW33159   0.997   7.232   7.727  0.1167 -0.4646 -0.2634
10573SOL    HW133160   1.087   7.263   7.725  0.1926 -0.6509  0.3398
10573SOL    HW233161   0.968   7.246   7.817 -0.7698  0.4855 -0.6610
10574SOL     OW33162   1.794   1.385   9.195  0.2664 -0.0451 -0.1601
10574SOL    HW133163   1.785   1.469   9.150 -2.1848 -0.3491 -0.3519
10574SOL    HW233164   1.752   1.321   9.137  0.5511 -1.1188  0.7641
10575SOL     OW33165   3.661   2.599   3.368 -0.2660 -0.3081 -0.0902
10575SOL    HW133166   3.625   2.685   3.346  1.4709  0.2806 -0.7663
10575SOL    HW233167   3.706   2.612   3.452 -4.8917 -2.0112  3.0808
10576SOL     OW33168   0.079   4.971  10.239 -0.6532  0.0548 -0.3253
10576SOL    HW133169   0.148   4.947  10.177 -1.2797  0.0111 -1.0197
10576SOL    HW233170  -0.002   4.939  10.199 -1.3819  2.1870 -0.7045
10577SOL     OW33171   3.293   0.357   7.009  0.1959 -0.0652  0.0264
10577SOL    HW133172   3.388   0.365   6.995 -0.1668  0.2445 -2.8479
10577SOL    HW233173   3.275   0.264   7.001  0.2084 -0.1048  0.4131
10578SOL     OW33174   5.309   3.307   5.604 -0.1368  0.9132 -0.0784
10578SOL    HW133175   5.395   3.326   5.567 -0.4872  2.8326  0.0080
10578SOL    HW233176   5.270   3.392   5.620 -0.2942  0.2438  4.1044
10579SOL     OW33177   6.214   6.465   8.484 -0.2348 -0.0094 -0.0973
10579SOL    HW133178   6.184   6.438   8.397  2.2449 -0.1811 -0.9713
10579SOL    HW233179   6.155   6.419   8.544 -1.1806 -0.9377 -1.6511
10580SOL     OW33180   7.224   7.065   9.385  0.3246 -0.5624  0.0205
10580SOL    HW133181   7.198   7.099   9.471 -2.9432  1.3635 -1.5467
10580SOL    HW233182   7.248   7.143   9.335  1.3336 -1.5591 -1.1131
10581SOL     OW33183   6.385   7.039  10.495 -0.1812  0.0506  0.5653
10581SOL    HW133184   6.430   7.062  10.414  0.2988 -1.6514  0.3193
10581SOL    HW233185   6.433   7.087  10.563  0.1898  0.5135 -0.0152
10582SOL     OW33186   7.441   2.201  11.310 -0.2030  0.0666  0.1901
10582SOL    HW133187   7.396   2.137  11.255 -0.2399  0.7087 -0.5394
10582SOL    HW233188   7.403   2.188  11.397 -2.5358  1.1984 -0.5632
10583SOL     OW33189   7.773   7.906   0.652 -0.6369  0.2768  0.0342
10583SOL    HW133190   7.762   7.816   0.621 -0.4982  0.2470  0.0735
10583SOL    HW233191   7.710   7.957   0.600  0.3052  0.3953 -1.0370
10584SOL     OW33192   2.815   0.687   4.594  0.0979 -0.0804  0.1736
10584SOL    HW133193   2.850   0.701   4.682  2.7916  3.7088 -1.2433
10584SOL    HW233194   2.873   0.621   4.556  3.3298  2.9310 -0.6640
10585SOL     OW33195   3.184   0.701   2.738  0.1711 -0.0277 -0.3797
10585SOL    HW133196   3.197   0.609   2.715 -0.1098  0.1751 -1.4020
10585SOL    HW233197   3.112   0.700   2.801  0.7939 -0.5821  0.3371
10586SOL     OW33198   5.467   7.437   0.222  0.1443  0.5479 -0.3469
10586SOL    HW133199   5.427   7.361   0.264  0.6622  0.2032 -0.4736
10586SOL    HW233200   5.395   7.499   0.211 -0.0041  0.6464  1.0366
10587SOL     OW33201   2.499   7.957   8.043  0.7754  0.3507  0.5470
10587SOL    HW133202   2.561   7.884   8.043  0.0474 -0.2786  1.2963
10587SOL    HW233203   2.416   7.919   8.073 -0.0652  1.1103 -0.6888
10588SOL     OW33204   0.295   1.273   6.647 -0.0719  0.0947 -0.1923
10588SOL    HW133205   0.211   1.228   6.652  0.4890 -1.0557 -0.8428
10588SOL    HW233206   0.277   1.354   6.600 -0.5879 -0.7430 -1.4700
10589SOL     OW33207   2.885   5.427   2.104 -0.1004 -0.2984 -0.0214
10589SOL    HW133208   2.962   5.403   2.052 -0.3857  1.6195 -1.4229
10589SOL    HW233209   2.878   5.522   2.095 -1.9957 -0.2951  0.9880
10590SOL     OW33210   0.792   5.213  12.334  0.3202  0.5219 -0.0441
10590SOL    HW133211   0.832   5.299  12.342 -0.8482  1.1113 -0.3818
10590SOL    HW233212   0.763   5.191  12.423 -0.1402  0.8543 -0.1126
10591SOL     OW33213   0.863   4.541   8.094  0.0981  0.0032  0.8252
10591SOL    HW133214   0.890   4.470   8.036  0.9714 -0.5202  1.8299
10591SOL    HW233215   0.857   4.617   8.037 -0.5551 -0.7988 -0.2195
10592SOL     OW33216   5.119   0.229   2.709 -0.4138  0.4367  0.6316
10592SOL    HW133217   5.084   0.293   2.647 -1.8430  0.2429  1.1909
10592SOL    HW233218   5.115   0.273   2.794 -1.8539 -0.5290  1.0890
10593SOL     OW33219   6.309   3.856   7.659  0.4577 -0.6191  0.3028
10593SOL    HW133220   6.304   3.804   7.580  0.3380  0.3591 -0.3513
10593SOL    HW233221   6.351   3.938   7.632  0.1511 -0.1506  1.1812
10594SOL     OW33222   2.999   4.060   7.368 -0.3092  0.2557 -0.0428
10594SOL    HW133223   2.954   4.135   7.407 -1.8932 -0.7126  0.0716
10594SOL    HW233224   3.091   4.074   7.389 -0.9392  0.4364  2.9494
10595SOL     OW33225   1.957   6.493  12.184 -0.4610 -0.3259 -0.1504
10595SOL    HW133226   1.956   6.498  12.088 -2.4648  0.2371 -0.1513
10595SOL    HW233227   1.918   6.407  12.203 -0.7759 -0.1178  0.1542
10596SOL     OW33228   0.778   5.126   6.618 -0.3138 -0.2018 -0.1419
10596SOL    HW133229   0.756   5.096   6.706  0.6967 -0.9309 -0.1156
10596SOL    HW233230   0.695   5.130   6.572 -0.7159 -0.9736  0.4957
10597SOL     OW33231   2.050   4.168   4.928  0.4447 -0.1522 -0.0031
10597SOL    HW133232   1.975   4.116   4.899  0.3838  0.2150 -0.5016
10597SOL    HW233233   2.068   4.135   5.016 -0.5545  0.0165  0.2901
10598SOL     OW33234   2.053   5.630   9.229 -0.3282  0.5109  0.1161
10598SOL    HW133235   2.067   5.536   9.215 -1.7223  0.5550 -1.9895
10598SOL    HW233236   2.081   5.671   9.147  1.0463  2.0832  1.2901
10599SOL     OW33237   7.289   2.655   7.125  0.0858  0.1969  0.2242
10599SOL    HW133238   7.206   2.696   7.149  1.0743  1.3921  1.8298
10599SOL    HW233239   7.291   2.658   7.030 -1.1898  1.2229  0.1980
10600SOL     OW33240   0.147   7.834   8.215 -0.3298 -0.6430 -0.2464
10600SOL    HW133241   0.115   7.844   8.126 -0.9785 -0.4562  0.0045
10600SOL    HW233242   0.081   7.781   8.259 -0.8001  0.5584  0.5357
10601SOL     OW33243   6.204   2.227   3.360  0.5652 -0.3252  0.5418
10601SOL    HW133244   6.272   2.216   3.426  0.0936 -0.4664  1.0090
10601SOL    HW233245   6.244   2.283   3.294  0.6356  0.8427  1.5358
10602SOL     OW33246   1.336   1.724  10.653 -0.3914  0.1072  0.4392
10602SOL    HW133247   1.355   1.646  10.704  0.5383 -0.8310 -1.2399
10602SOL    HW233248   1.244   1.744  10.671 -0.3021 -0.6592  1.8156
10603SOL     OW33249   1.626   0.025  11.135  0.3088  0.3392 -0.1292
10603SOL    HW133250   1.717   0.053  11.140  0.5913 -0.4570 -0.6462
10603SOL    HW233251   1.608  -0.015  11.220  0.5777  0.1160 -0.1767
10604SOL     OW33252   1.293   4.303   1.201 -0.0983  0.4118  0.4430
10604SOL    HW133253   1.228   4.373   1.208 -1.1940 -0.4011 -1.0879
10604SOL    HW233254   1.372   4.347   1.169 -0.0609  1.2928  1.6647
10605SOL     OW33255   0.332   5.739   0.369 -0.2026  0.5820 -0.1493
10605SOL    HW133256   0.333   5.834   0.361 -2.5131  0.5748 -1.2952
10605SOL    HW233257   0.242   5.718   0.395  0.3990 -1.2762  0.6016
10606SOL     OW33258   1.486   5.332   6.638 -0.4449 -0.8318 -0.6385
10606SOL    HW133259   1.524   5.320   6.551  0.1260  1.2600 -0.7409
10606SOL    HW233260   1.392   5.331   6.623 -0.3506  0.3580 -1.4506
10607SOL     OW33261   7.821   3.908   1.505  0.3169 -0.3681  0.6616
10607SOL    HW133262   7.777   3.911   1.589 -4.1510 -0.5168 -1.3767
10607SOL    HW233263   7.825   3.999   1.476  2.5229 -0.2292  1.2175
10608SOL     OW33264   5.724   0.858   7.653  0.4441  0.7465  0.2688
10608SOL    HW133265   5.750   0.946   7.629  0.5738  0.7677  0.4841
10608SOL    HW233266   5.657   0.870   7.720  0.5843  0.6810  0.4227
10609SOL     OW33267   3.077   1.850  12.214 -0.6879  0.2190  0.2067
10609SOL    HW133268   2.991   1.892  12.206 -0.6744  0.0846 -0.7418
10609SOL    HW233269   3.123   1.901  12.281 -1.4819  0.3242  0.6930
10610SOL     OW33270   5.198   1.174   2.260 -0.1565 -0.0933 -0.1227
10610SOL    HW133271   5.278   1.205   2.218 -0.3550  0.6087  0.0175
10610SOL    HW233272   5.134   1.244   2.248 -0.5112 -0.2999  0.4760
10611SOL     OW33273   3.517   4.801  12.268  0.1065 -0.0042  0.9128
10611SOL    HW133274   3.458   4.858  12.219 -1.0676 -0.4388  1.7486
10611SOL    HW233275   3.502   4.825  12.360  0.0414 -1.2067  1.2357
10612SOL     OW33276   3.195   5.832  11.531 -0.1230  0.5012  0.4087
10612SOL    HW133277   3.121   5.877  11.573  0.5063  0.2557  1.8316
10612SOL    HW233278   3.154   5.770  11.471 -1.0233  2.4055 -1.0428
10613SOL     OW33279   6.702   6.736   7.708  0.4281  0.2613 -0.0802
10613SOL    HW133280   6.704   6.828   7.683  0.7791  0.0057 -1.0253
10613SOL    HW233281   6.668   6.691   7.631 -1.8312 -0.1850  1.0750
10614SOL     OW33282   2.391   5.355   3.450 -0.4623  0.0476  0.2293
10614SOL    HW133283   2.486   5.358   3.436 -0.4718 -1.5916 -0.4042
10614SOL    HW233284   2.353   5.387   3.368 -0.4463 -1.6365 -0.4735
10615SOL     OW33285   5.797   4.578   0.659 -0.2978 -0.1387  0.8698
10615SOL    HW133286   5.727   4.565   0.595  0.0140 -0.0959  0.5080
10615SOL    HW233287   5.755   4.621   0.733 -0.7266 -0.4558  0.8139
10616SOL     OW33288   0.432   5.201   8.560 -0.2225 -0.2422 -0.3869
10616SOL    HW133289   0.386   5.197   8.476 -0.9952  0.0339  0.0242
10616SOL    HW233290   0.515   5.155   8.543 -1.1617 -1.8860 -0.7935
10617SOL     OW33291   0.025   0.580   7.399 -0.8158  0.0166  0.1138
10617SOL    HW133292   0.094   0.643   7.417 -0.8713 -0.1026  0.7826
10617SOL    HW233293   0.018   0.529   7.479 -1.6228 -0.0200  0.0303
10618SOL     OW33294   1.001   0.738   3.827 -0.0938  0.3509  0.0447
10618SOL    HW133295   0.933   0.774   3.771 -1.3382 -0.1849  1.1728
10618SOL    HW233296   0.955   0.679   3.887  1.4172 -0.3904  0.5375
10619SOL     OW33297   2.460   6.819   9.759 -0.7081  0.0377  0.8299
10619SOL    HW133298   2.527   6.826   9.827  0.4139  2.3654 -0.3875
10619SOL    HW233299   2.510   6.810   9.678 -1.9515 -0.0782  0.0520
10620SOL     OW33300   3.918   4.395   8.906  0.0411 -0.0555 -0.4001
10620SOL    HW133301   3.836   4.371   8.863 -0.4768 -0.0877  0.5723
10620SOL    HW233302   3.909   4.488   8.926 -0.2683 -0.3187  0.7608
10621SOL     OW33303   5.547   0.038   8.753 -0.1925 -0.0347  0.0791
10621SOL    HW133304   5.462   0.076   8.732 -0.1724  0.3584  0.6911
10621SOL    HW233305   5.531  -0.056   8.755 -0.5373  0.0165 -0.1378
10622SOL     OW33306   2.456   7.733   9.600 -0.1864 -0.1363 -0.0330
10622SOL    HW133307   2.444   7.808   9.658  0.9625  0.0935 -0.0720
10622SOL    HW233308   2.368   7.716   9.565 -0.5990  0.7156  0.5392
10623SOL     OW33309   2.599   1.873   1.081  0.7618 -0.2071  0.0927
10623SOL    HW133310   2.625   1.819   1.006  1.3208 -0.1924  0.2721
10623SOL    HW233311   2.648   1.838   1.155  0.9218  0.3654  0.2672
10624SOL     OW33312   3.102   4.086  12.337 -1.0001 -0.4317 -0.1404
10624SOL    HW133313   3.076   4.097  12.245 -0.6254 -1.1860 -0.3468
10624SOL    HW233314   3.186   4.132  12.343 -0.4474 -1.3743 -0.4797
10625SOL     OW33315   1.682   3.319  10.578  0.2226  0.0288  0.9758
10625SOL    HW133316   1.749   3.341  10.642  1.7559 -1.5715 -0.0041
10625SOL    HW233317   1.710   3.364  10.498 -0.5111  0.2566  0.8331
10626SOL     OW33318   5.412   0.160   3.048  0.3249  0.2458 -0.3740
10626SOL    HW133319   5.400   0.181   3.141 -1.8592 -0.2789 -0.4677
10626SOL    HW233320   5.408   0.245   3.004 -1.5308  0.2996 -0.1846
10627SOL     OW33321   6.227   4.091   1.101  0.1825 -0.3801 -0.3836
10627SOL    HW133322   6.275   4.019   1.060 -1.5070 -1.7831  0.0377
10627SOL    HW233323   6.251   4.087   1.194  0.4405 -0.0756 -0.4311
10628SOL     OW33324   3.246   5.682   7.155 -0.1052  0.1786 -0.2652
10628SOL    HW133325   3.313   5.615   7.142  0.0010  0.6418 -2.5492
10628SOL    HW233326   3.167   5.643   7.118 -0.2715  0.8976 -0.6845
10629SOL     OW33327   1.485   6.087   7.710 -0.0425 -0.3665 -0.1172
10629SOL    HW133328   1.553   6.020   7.702  2.0082  1.2952  1.9625
10629SOL    HW233329   1.532   6.165   7.740 -2.6416  1.3994 -0.3439
10630SOL     OW33330   5.259   0.503   0.884 -0.0074 -0.0766  0.4818
10630SOL    HW133331   5.175   0.544   0.903 -0.6558 -0.4837 -1.2955
10630SOL    HW233332   5.273   0.442   0.956 -2.1866 -1.3754 -0.1123
10631SOL     OW33333   7.753   3.443   1.098  0.2858  0.4720  0.6115
10631SOL    HW133334   7.846   3.422   1.088  0.5390  1.3927  0.9726
10631SOL    HW233335   7.743   3.464   1.190 -0.6464 -1.2948  0.9479
10632SOL     OW33336   0.392   7.691   4.888 -0.2016 -0.5537  0.4056
10632SOL    HW133337   0.440   7.671   4.808  0.8573 -1.3438  1.2095
10632SOL    HW233338   0.301   7.702   4.859  0.2682 -0.1128 -0.9902
10633SOL     OW33339   7.101   7.542   0.971  0.3291 -0.0031 -0.2070
10633SOL    HW133340   7.186   7.586   0.969  0.3249 -0.0053 -1.4536
10633SOL    HW233341   7.039   7.609   1.000  0.9959 -0.5164  2.7105
10634SOL     OW33342   6.742   6.141  10.558  0.0278  0.0743 -0.1133
10634SOL    HW133343   6.837   6.140  10.573 -0.0409  0.1242  0.3466
10634SOL    HW233344   6.705   6.159  10.645 -0.4930 -2.4069  0.2547
10635SOL     OW33345   3.074   4.124  11.469  0.2533 -0.4143  0.2900
10635SOL    HW133346   3.049   4.174  11.391 -0.2059  2.1911  2.0037
10635SOL    HW233347   2.998   4.070  11.489 -0.3250  0.2718 -0.0351
10636SOL     OW33348   2.881   1.452   4.161  0.3364 -0.5013 -0.1984
10636SOL    HW133349   2.865   1.492   4.247  0.4945 -0.1951 -0.3065
10636SOL    HW233350   2.936   1.517   4.115 -0.1280 -0.4545 -0.6964
10637SOL     OW33351   1.751   2.797   4.647 -0.0988  0.0148  0.5775
10637SOL    HW133352   1.710   2.712   4.662 -0.6471  0.1743 -0.0111
10637SOL    HW233353   1.689   2.846   4.594  0.5421  0.5176  0.2684
10638SOL     OW33354   4.720   0.176   0.366  0.4576  0.5825  0.6056
10638SOL    HW133355   4.737   0.251   0.423  0.7964  0.3728  0.7825
10638SOL    HW233356   4.689   0.215   0.284 -1.3310  0.8418  1.3632
10639SOL     OW33357   6.199   3.141   2.302  0.0740 -0.6028 -1.1003
10639SOL    HW133358   6.166   3.138   2.212  0.2960 -1.6021 -1.1578
10639SOL    HW233359   6.260   3.068   2.308  0.9426  0.1541 -0.4661
10640SOL     OW33360   4.482   0.846   5.911 -0.0298  0.2303 -0.2496
10640SOL    HW133361   4.445   0.842   5.999  3.5393  1.1437  1.5066
10640SOL    HW233362   4.480   0.940   5.889  1.1975  0.3235 -0.0513
10641SOL     OW33363   6.764   6.104   9.501  1.2429  0.6135 -0.3269
10641SOL    HW133364   6.692   6.159   9.468  0.0001 -1.3202 -0.9833
10641SOL    HW233365   6.724   6.053   9.571  2.3492  0.4355  0.1837
10642SOL     OW33366   7.321   3.946   5.473  0.0719 -0.4655  0.0911
10642SOL    HW133367   7.371   4.022   5.502  0.0331 -0.3463 -0.1590
10642SOL    HW233368   7.373   3.908   5.402 -0.6451  0.1977 -0.8069
10643SOL     OW33369   6.805   0.825  10.907 -0.0711 -0.6622 -0.0637
10643SOL    HW133370   6.849   0.876  10.839 -0.4514 -1.1268 -0.6632
10643SOL    HW233371   6.873   0.764  10.939 -0.3031 -1.4775 -1.0878
10644SOL     OW33372   0.670   3.944   4.557  0.5758 -0.1285 -0.2479
10644SOL    HW133373   0.654   3.887   4.482  1.0886 -0.0353 -0.4341
10644SOL    HW233374   0.612   3.910   4.625  0.6886 -0.7158 -0.4333
10645SOL     OW33375   2.642   5.663  11.814 -0.1616  0.0722  0.3813
10645SOL    HW133376   2.615   5.720  11.742  0.9395  0.3382  0.1577
10645SOL    HW233377   2.637   5.720  11.891 -0.9466 -0.0973  0.4658
10646SOL     OW33378   4.907   5.231   9.057 -0.1658  0.4046  0.3121
10646SOL    HW133379   4.916   5.138   9.038 -0.4332  0.7612 -1.6851
10646SOL    HW233380   4.815   5.243   9.081 -0.2274  0.2276  0.1604
10647SOL     OW33381   6.330   2.064   4.059  0.2450 -0.2939  0.4448
10647SOL    HW133382   6.332   2.155   4.090  2.0637 -0.4958  1.0646
10647SOL    HW233383   6.294   2.070   3.970 -0.5736  0.9007  0.8283
10648SOL     OW33384   3.074   1.626   4.670  0.7459 -0.6731 -0.2436
10648SOL    HW133385   3.026   1.554   4.710  0.7893 -1.0460 -0.8561
10648SOL    HW233386   3.042   1.705   4.715  1.7104 -1.1817  1.4307
10649SOL     OW33387   1.526   4.991   9.473  0.5266 -0.4435  0.6830
10649SOL    HW133388   1.611   5.036   9.465  2.1764 -3.4221 -0.4220
10649SOL    HW233389   1.506   4.964   9.383 -0.3409 -1.8855  1.2871
10650SOL     OW33390   6.888   4.221   9.564 -0.2390 -0.2058 -0.4082
10650SOL    HW133391   6.839   4.244   9.486  1.2786 -0.0223 -1.3319
10650SOL    HW233392   6.975   4.257   9.550  0.1376 -0.3735  1.2670
10651SOL     OW33393   5.194   7.637   8.362  0.3150  0.2165 -0.5365
10651SOL    HW133394   5.156   7.592   8.437  0.2821  1.2731  0.1065
10651SOL    HW233395   5.121   7.685   8.323  0.3497 -0.2650 -1.2089
10652SOL     OW33396   1.497   7.092   0.353 -0.0219 -0.3687 -0.2103
10652SOL    HW133397   1.571   7.083   0.412 -0.6976  0.9779  0.9008
10652SOL    HW233398   1.457   7.005   0.351 -0.1371 -0.4006  1.5683
10653SOL     OW33399   7.279   1.660   6.597 -0.5293  0.4410 -0.0669
10653SOL    HW133400   7.315   1.748   6.609  1.2138 -0.2528  0.0549
10653SOL    HW233401   7.189   1.667   6.628  0.1066  1.7606  1.6499
10654SOL     OW33402   0.151   2.642  11.714 -0.0958  0.6301 -0.9296
10654SOL    HW133403   0.086   2.605  11.773 -0.0878 -0.5376 -1.6355
10654SOL    HW233404   0.234   2.632  11.760 -0.0874 -0.2902 -1.1315
10655SOL     OW33405   7.787   5.473  11.346 -0.2979  0.0556  0.2087
10655SOL    HW133406   7.848   5.426  11.290 -0.1203  1.5613 -0.9173
10655SOL    HW233407   7.717   5.410  11.364  0.1095 -0.7495 -0.9255
10656SOL     OW33408   6.085   3.536   4.519  0.1547  0.3925 -0.1233
10656SOL    HW133409   6.144   3.611   4.509  0.8525 -0.3735 -2.3617
10656SOL    HW233410   6.046   3.548   4.605  2.5674  1.6683  0.9088
10657SOL     OW33411   0.072   0.071   8.840  0.0149  0.1911  0.0437
10657SOL    HW133412   0.089   0.111   8.755  1.4930 -0.8912 -0.1937
10657SOL    HW233413   0.131   0.117   8.900 -1.9101  1.8321  0.7900
10658SOL     OW33414   3.957   7.201   7.046  0.0835 -0.2921  0.2915
10658SOL    HW133415   3.984   7.284   7.008 -1.0653  0.4216  0.9774
10658SOL    HW233416   3.914   7.154   6.974  0.7934 -0.3379 -0.1125
10659SOL     OW33417   3.473   4.719   6.599  0.2429 -0.0237  0.0730
10659SOL    HW133418   3.500   4.719   6.507 -0.4227 -0.3379 -0.1297
10659SOL    HW233419   3.548   4.756   6.646  0.2120  1.0699 -0.7057
10660SOL     OW33420   5.162   1.955   8.768  0.3630 -0.0967 -0.4188
10660SOL    HW133421   5.258   1.951   8.770  0.4325  0.8469 -1.0663
10660SOL    HW233422   5.142   2.048   8.777 -0.6481 -0.5295  3.5584
10661SOL     OW33423   2.916   1.410   9.581  0.3110 -0.6200  0.1067
10661SOL    HW133424   3.007   1.416   9.551  0.5616 -2.4162  0.4226
10661SOL    HW233425   2.879   1.339   9.529 -0.3667 -1.1565  1.2940
10662SOL     OW33426   7.544   7.222   9.552 -0.3488 -0.7205  0.2374
10662SOL    HW133427   7.503   7.299   9.591 -2.1818 -1.0681 -0.8881
10662SOL    HW233428   7.619   7.258   9.504 -0.1952  0.1358  1.0837
10663SOL     OW33429   4.514   4.848   0.206  0.2302  0.1221 -0.0782
10663SOL    HW133430   4.485   4.897   0.129 -1.6343 -1.9348 -0.7860
10663SOL    HW233431   4.439   4.795   0.231  0.0833  2.0065  4.3825
10664SOL     OW33432   7.331   5.145   1.125  0.6533 -0.3795  0.2968
10664SOL    HW133433   7.330   5.180   1.036 -0.4892 -1.4196 -0.1311
10664SOL    HW233434   7.411   5.093   1.130 -0.7373 -2.8353 -1.1996
10665SOL     OW33435   6.357   3.276   4.466 -0.1154 -0.0182  0.3952
10665SOL    HW133436   6.406   3.327   4.531 -1.0394  0.4943  0.7087
10665SOL    HW233437   6.380   3.317   4.382 -0.6663  0.7908  0.6234
10666SOL     OW33438   5.894   4.151  10.084 -0.0562 -0.0934  0.8380
10666SOL    HW133439   5.981   4.184  10.062  0.1362 -0.7714  0.5644
10666SOL    HW233440   5.911   4.068  10.130 -0.5543 -0.1752  0.8779
10667SOL     OW33441   6.556   0.351   0.723 -0.1129  0.4889 -0.1315
10667SOL    HW133442   6.474   0.303   0.734  0.2090 -0.5616 -1.8673
10667SOL    HW233443   6.610   0.293   0.670  0.9596  2.0547 -0.8198
10668SOL     OW33444   2.901   4.323   9.540 -0.2026  0.4555  0.0798
10668SOL    HW133445   2.965   4.342   9.471  1.7108 -0.4253  1.5344
10668SOL    HW233446   2.859   4.407   9.558 -0.5805  0.7541 -1.9490
10669SOL     OW33447   7.092   7.627   1.909 -0.6856  0.4618 -0.3382
10669SOL    HW133448   7.092   7.535   1.937  2.4376  0.9397  1.6646
10669SOL    HW233449   7.065   7.676   1.987  2.4952  1.4596  0.2672
10670SOL     OW33450   6.500   0.285   2.265  0.0693  0.0622 -0.0587
10670SOL    HW133451   6.529   0.289   2.174  0.1395 -0.2125 -0.0501
10670SOL    HW233452   6.405   0.270   2.259  0.5171 -3.8855 -0.1573
10671SOL     OW33453   3.222   0.096   9.253  0.4633 -0.3477  0.0750
10671SOL    HW133454   3.141   0.114   9.205  0.8511  1.3617  0.0015
10671SOL    HW233455   3.194   0.043   9.328 -0.6871  0.0509 -0.0512
10672SOL     OW33456   4.649   7.768   8.266  0.3293  0.0499  0.0887
10672SOL    HW133457   4.697   7.755   8.185 -1.1151 -3.2729 -0.3752
10672SOL    HW233458   4.573   7.820   8.241  0.5876  0.2006 -0.3944
10673SOL     OW33459   7.833   0.656  11.009 -0.0011  0.1081 -0.1859
10673SOL    HW133460   7.767   0.619  11.067 -0.9283 -0.4436 -1.5311
10673SOL    HW233461   7.906   0.594  11.013 -0.7001 -0.7835 -0.8057
10674SOL     OW33462   7.764   7.465   2.034  0.0146  0.1099  0.1938
10674SOL    HW133463   7.741   7.527   1.965  1.5638  3.4501  2.3767
10674SOL    HW233464   7.699   7.480   2.103  0.8670 -0.1206  1.0716
10675SOL     OW33465   7.878   1.592   1.765 -0.0754  0.6189  0.5528
10675SOL    HW133466   7.941   1.663   1.756  0.3269  0.0848 -1.3840
10675SOL    HW233467   7.811   1.611   1.699 -0.4365 -0.3028  0.6402
10676SOL     OW33468   3.972   7.748   7.957  0.8083 -0.0836  0.2197
10676SOL    HW133469   3.964   7.681   8.025 -1.0811 -0.8238 -0.6424
10676SOL    HW233470   3.889   7.796   7.962  1.1125  0.5853 -0.8209
10677SOL     OW33471   2.842   5.968   5.686 -0.4619 -0.4624 -0.3338
10677SOL    HW133472   2.817   5.906   5.755 -1.0207 -0.0761 -0.1834
10677SOL    HW233473   2.802   6.051   5.713  0.5480  0.0463 -0.3626
10678SOL     OW33474   6.396   1.417  11.736  0.5432  0.1193 -0.5713
10678SOL    HW133475   6.316   1.455  11.700 -1.0614 -2.4529  0.0135
10678SOL    HW233476   6.416   1.343  11.680  2.9174  0.9855 -1.0219
10679SOL     OW33477   1.363   2.877   8.648  0.0616  0.2625  0.3830
10679SOL    HW133478   1.436   2.927   8.613  1.5189 -0.6144  2.0204
10679SOL    HW233479   1.291   2.941   8.654  1.0511  1.4575 -0.1087
10680SOL     OW33480   6.193   1.697   0.099 -0.2828  0.3399 -0.2277
10680SOL    HW133481   6.176   1.753   0.175 -0.7594  0.1903 -0.2195
10680SOL    HW233482   6.225   1.757   0.032  0.1546  0.4722  0.0949
10681SOL     OW33483   3.062   0.032   6.748 -0.0532 -0.1790  0.1596
10681SOL    HW133484   3.098   0.059   6.832  0.3178 -0.1121 -0.0199
10681SOL    HW233485   2.970   0.058   6.751 -0.1782 -0.6712  0.7590
10682SOL     OW33486   7.194   6.777   9.672 -0.0690  0.1552 -0.2951
10682SOL    HW133487   7.115   6.814   9.710 -0.3386 -0.0709 -0.6322
10682SOL    HW233488   7.210   6.697   9.722 -1.5178 -1.1913 -1.8713
10683SOL     OW33489   4.653   0.309   6.214  0.6000  0.2789  0.5371
10683SOL    HW133490   4.638   0.225   6.170  0.0667  1.3358 -1.3792
10683SOL    HW233491   4.567   0.332   6.250  1.0266 -0.5669  2.1972
10684SOL     OW33492   2.845   0.946  10.858 -0.4975 -0.0367 -0.0119
10684SOL    HW133493   2.796   0.865  10.851  0.0920 -0.5268  1.2547
10684SOL    HW233494   2.831   0.990  10.774  1.3453 -2.6537 -1.8301
10685SOL     OW33495   4.379   7.950   4.794 -0.8820 -0.1660 -0.0263
10685SOL    HW133496   4.406   7.946   4.703  1.1937  1.8648  0.4094
10685SOL    HW233497   4.322   8.027   4.799  0.7498  1.0640  0.6965
10686SOL     OW33498   0.699   4.565  10.141 -0.0796 -0.7730 -0.0048
10686SOL    HW133499   0.606   4.587  10.133  0.0383 -0.5909 -1.0173
10686SOL    HW233500   0.700   4.476  10.176 -0.6983 -1.6021 -1.9531
10687SOL     OW33501   7.873   4.063   3.740  0.0694  0.2430  0.0404
10687SOL    HW133502   7.912   3.992   3.689  1.8700  1.8014 -0.8712
10687SOL    HW233503   7.823   4.019   3.809 -1.1783 -1.9294 -2.0996
10688SOL     OW33504   7.197   6.130  10.490  0.0808 -0.3445  0.2430
10688SOL    HW133505   7.268   6.112  10.430  0.5712 -1.6566  1.1731
10688SOL    HW233506   7.232   6.109  10.577 -0.7641  0.9981  0.9668
10689SOL     OW33507   2.405   6.993   3.841 -0.0851 -0.1707 -0.2272
10689SOL    HW133508   2.411   7.071   3.896  0.9279 -1.1142  1.0839
10689SOL    HW233509   2.485   6.995   3.788 -0.8248  0.4804 -1.3613
10690SOL     OW33510   2.808   7.278   3.654  0.0211  0.0588  0.0889
10690SOL    HW133511   2.760   7.243   3.580 -0.1049  2.6268 -1.1596
10690SOL    HW233512   2.867   7.343   3.616  1.4575  0.0016  2.0483
10691SOL     OW33513   4.986   6.171   4.288  0.5421 -0.1864  0.4671
10691SOL    HW133514   4.919   6.103   4.284 -0.4630  0.7767  0.2841
10691SOL    HW233515   4.938   6.250   4.315  1.2874  0.8996 -1.2411
10692SOL     OW33516   7.726   1.610   6.481 -0.3041  0.1125  0.1525
10692SOL    HW133517   7.668   1.668   6.433  0.2124 -0.4140 -1.1449
10692SOL    HW233518   7.667   1.556   6.534 -1.1815 -1.4115 -2.2310
10693SOL     OW33519   7.728   7.646   6.611  0.1102  0.2995  0.3565
10693SOL    HW133520   7.739   7.638   6.517  0.3150 -1.0880  0.4854
10693SOL    HW233521   7.817   7.658   6.644  0.4586 -2.4947  0.6358
10694SOL     OW33522   4.189   4.449  11.833 -0.5898  0.1281 -0.0005
10694SOL    HW133523   4.182   4.545  11.834 -3.0017  0.0049 -0.3338
10694SOL    HW233524   4.120   4.419  11.891 -0.5451 -1.4501 -0.7291
10695SOL     OW33525   2.299   1.204  12.276  0.0167 -0.4000  0.1364
10695SOL    HW133526   2.302   1.187  12.370 -4.2517  1.1859  0.8196
10695SOL    HW233527   2.283   1.119  12.236  0.0068 -0.8372  1.0567
10696SOL     OW33528   6.879   5.219   7.301  0.3516  0.1664  0.3935
10696SOL    HW133529   6.900   5.256   7.386 -0.3839  1.1215  0.1809
10696SOL    HW233530   6.784   5.231   7.293 -0.2830 -3.3132  1.0329
10697SOL     OW33531   0.654   7.203   7.196  0.1426  0.5210  0.1322
10697SOL    HW133532   0.659   7.225   7.103  0.3826  0.2610  0.0812
10697SOL    HW233533   0.580   7.254   7.229  1.0712  1.9417  0.1612
10698SOL     OW33534   6.091   0.055  10.570 -0.2134  0.0060 -0.2274
10698SOL    HW133535   6.123  -0.035  10.570  0.8502  0.3679 -0.3046
10698SOL    HW233536   6.167   0.107  10.594 -0.8501  0.8816 -0.0674
10699SOL     OW33537   6.190   7.510  10.895  0.3155  0.4067 -0.1800
10699SOL    HW133538   6.219   7.595  10.926  2.1568 -0.3118  0.1724
10699SOL    HW233539   6.238   7.447  10.948  0.5396 -0.8559 -1.8082
10700SOL     OW33540   0.056   7.601   8.362 -0.2094  0.2450 -0.7146
10700SOL    HW133541   0.151   7.601   8.375 -0.3290  0.8818  0.2932
10700SOL    HW233542   0.030   7.510   8.377  0.0384  0.3988  0.9217
10701SOL     OW33543   3.173   2.676   6.944 -0.2554 -0.0172  0.0031
10701SOL    HW133544   3.194   2.600   6.998 -1.2417 -1.3423 -1.3897
10701SOL    HW233545   3.088   2.655   6.905 -0.6169  1.8710 -0.3306
10702SOL     OW33546   3.047   1.114   8.301 -0.7133 -0.0680 -0.3006
10702SOL    HW133547   3.047   1.060   8.222 -2.3316  0.4239 -0.6756
10702SOL    HW233548   3.129   1.163   8.297  0.4010 -1.8841 -0.3559
10703SOL     OW33549   5.254   5.053   4.560 -0.5387  0.1102  0.0743
10703SOL    HW133550   5.326   5.024   4.504 -2.0068 -3.1517 -0.3543
10703SOL    HW233551   5.258   4.995   4.636 -0.5627  2.3349  1.8850
10704SOL     OW33552   2.856   6.568   1.768  0.4665  0.1617  0.7797
10704SOL    HW133553   2.833   6.582   1.676 -0.0025  1.4672  1.0825
10704SOL    HW233554   2.951   6.557   1.768  0.4505 -0.0263  0.1245
10705SOL     OW33555   0.198   4.630  11.926 -0.0749  0.2486 -0.0097
10705SOL    HW133556   0.135   4.573  11.882 -0.5528  1.5243 -1.0341
10705SOL    HW233557   0.144   4.694  11.972  0.4575  1.1454 -0.6175
10706SOL     OW33558   5.105   1.543  11.647 -0.2620  0.3368  0.0852
10706SOL    HW133559   5.040   1.536  11.577 -1.6331  1.3858  1.1976
10706SOL    HW233560   5.058   1.584  11.719  0.5329 -2.4207  2.3592
10707SOL     OW33561   5.109   5.392   7.016  0.3706 -0.2962  0.4384
10707SOL    HW133562   5.105   5.428   6.927  1.2910 -0.3808  0.3498
10707SOL    HW233563   5.017   5.386   7.043  0.1268  1.0697  0.0402
10708SOL     OW33564   3.975   2.247  10.765  0.8000 -0.0662  0.5680
10708SOL    HW133565   3.976   2.261  10.860 -0.4841 -1.0210  0.7381
10708SOL    HW233566   4.005   2.156  10.754  0.1059 -0.2449  0.1220
10709SOL     OW33567   7.710   5.068   9.121  0.0552 -0.3311 -0.2899
10709SOL    HW133568   7.789   5.039   9.166  0.9051 -2.0690 -2.7010
10709SOL    HW233569   7.722   5.162   9.110  0.3360 -0.0447  1.9660
10710SOL     OW33570   6.101   6.435   8.169  0.6703 -0.6040  0.0712
10710SOL    HW133571   6.031   6.381   8.130  0.1120 -0.5543  0.9647
10710SOL    HW233572   6.154   6.373   8.218  0.0072 -0.3643  1.1297
10711SOL     OW33573   2.065   0.704   0.146  0.0705  0.5292 -0.5546
10711SOL    HW133574   1.977   0.703   0.110  0.2250  0.7918 -0.9504
10711SOL    HW233575   2.070   0.784   0.197 -0.0896  0.2480 -0.0937
10712SOL     OW33576   2.121   5.302   1.970  0.4333  0.7456  0.5518
10712SOL    HW133577   2.168   5.324   2.050  2.4317 -0.5904 -0.1777
10712SOL    HW233578   2.138   5.375   1.911  1.9367  0.1391  0.1899
10713SOL     OW33579   3.389   2.373   1.650  0.6194  0.0782 -0.7166
10713SOL    HW133580   3.414   2.417   1.569  0.6572  0.9609 -0.2428
10713SOL    HW233581   3.295   2.358   1.642  0.5979  0.2865 -0.8679
10714SOL     OW33582   5.090   2.417   6.874  0.1578  0.0837 -0.2509
10714SOL    HW133583   5.036   2.495   6.892  0.5897  0.8213 -1.9904
10714SOL    HW233584   5.121   2.429   6.784  0.4881 -1.9777 -0.4536
10715SOL     OW33585   0.953   0.923   0.045 -0.2060  0.4463 -0.1639
10715SOL    HW133586   0.868   0.924   0.089  0.1701  0.5024  0.5689
10715SOL    HW233587   1.013   0.963   0.108  0.3792  0.3420 -0.6481
10716SOL     OW33588   1.761   4.983   7.142 -0.3001 -0.5700  0.1448
10716SOL    HW133589   1.701   4.910   7.124  0.0826 -0.7582 -0.3589
10716SOL    HW233590   1.721   5.058   7.099 -0.2401 -0.6663 -0.0755
10717SOL     OW33591   5.439   4.895   8.707  0.1650 -0.1903 -0.5097
10717SOL    HW133592   5.450   4.885   8.802 -2.6375  1.6836  0.1557
10717SOL    HW233593   5.469   4.812   8.671 -1.3438 -2.1434  2.3157
10718SOL     OW33594   6.019   4.622   7.429 -0.3393  0.2478 -0.2146
10718SOL    HW133595   6.107   4.585   7.434 -1.1953 -1.8188  0.7148
10718SOL    HW233596   5.973   4.564   7.368 -1.3140  0.7474  0.0326
10719SOL     OW33597   6.291   0.956   6.705  0.2819 -0.5997  0.2549
10719SOL    HW133598   6.265   0.952   6.798  1.9449  1.3204  0.8716
10719SOL    HW233599   6.256   0.875   6.668 -2.0756 -0.5727  2.0987
10720SOL     OW33600   7.664   6.785   1.347 -0.3644  0.9200  0.7977
10720SOL    HW133601   7.654   6.837   1.427 -1.5726  0.6825  0.8150
10720SOL    HW233602   7.701   6.846   1.283 -2.1071  1.9495  0.7062
10721SOL     OW33603   3.701   4.722   3.556  0.4050  0.0138  0.0684
10721SOL    HW133604   3.615   4.705   3.594  0.9632 -0.9679  0.9555
10721SOL    HW233605   3.752   4.760   3.628  0.5360  1.2340 -0.6336
10722SOL     OW33606   3.950   7.547  10.477  0.2109 -0.2092 -0.2210
10722SOL    HW133607   3.856   7.529  10.475  0.2668 -0.4570 -1.1631
10722SOL    HW233608   3.991   7.461  10.484  0.4229 -0.3773 -2.7029
10723SOL     OW33609   1.009   1.592  11.199 -0.7905  0.7525  0.6650
10723SOL    HW133610   1.093   1.585  11.245 -1.0921 -0.1301  1.1243
10723SOL    HW233611   1.026   1.649  11.124  0.5483 -0.4392  0.0209
10724SOL     OW33612   4.859   3.666  10.767  0.1653  0.3965  0.1295
10724SOL    HW133613   4.829   3.757  10.775  0.0813  0.3316  0.6144
10724SOL    HW233614   4.851   3.646  10.674 -1.5929  0.2822  0.2743
10725SOL     OW33615   0.954   3.437   0.572  0.2328  0.1144  0.0649
10725SOL    HW133616   0.912   3.351   0.575  1.6491 -0.6915 -1.5212
10725SOL    HW233617   1.046   3.419   0.589  0.5255  1.3644 -0.0861
10726SOL     OW33618   5.386   4.769   1.239  0.1315  0.2942  0.2091
10726SOL    HW133619   5.320   4.719   1.286  0.9348 -1.5120 -0.4918
10726SOL    HW233620   5.453   4.788   1.305 -0.1562  0.4060  0.4718
10727SOL     OW33621   3.464   2.144   3.795 -0.2809  0.1239 -0.4719
10727SOL    HW133622   3.504   2.218   3.840  0.8624 -0.2936 -0.7588
10727SOL    HW233623   3.503   2.067   3.837 -2.4180 -0.3815  0.7209
10728SOL     OW33624   6.381   4.992   1.303  0.1786  0.6301 -0.0826
10728SOL    HW133625   6.452   4.930   1.284 -0.9233 -0.8492  0.3495
10728SOL    HW233626   6.305   4.936   1.319 -1.0164  2.1521 -0.2143
10729SOL     OW33627   0.090   6.430  12.263  0.4415  0.2763 -0.8051
10729SOL    HW133628   0.116   6.424  12.355 -0.0219 -0.4298 -0.7099
10729SOL    HW233629   0.164   6.393  12.214  0.3432 -0.1239 -0.6554
10730SOL     OW33630   3.427   4.835   2.325  0.1163  1.0248 -0.1824
10730SOL    HW133631   3.410   4.782   2.403  2.4792  0.7492  0.2427
10730SOL    HW233632   3.341   4.850   2.286 -0.8037 -1.8266  0.5009
10731SOL     OW33633   3.000   4.363  11.910  0.3502  0.0911 -0.3960
10731SOL    HW133634   3.006   4.449  11.869 -2.4633  0.2588 -0.6436
10731SOL    HW233635   2.959   4.307  11.845  1.8712 -1.4280 -0.1322
10732SOL     OW33636   1.238   1.598   6.252  0.1796 -0.2840 -0.3582
10732SOL    HW133637   1.271   1.679   6.212  1.3063 -1.0604 -1.0663
10732SOL    HW233638   1.213   1.624   6.341  2.0033  0.5532 -0.0418
10733SOL     OW33639   1.946   6.866   1.048  0.2082  0.4234  0.7562
10733SOL    HW133640   1.964   6.882   0.955  0.9392 -0.6143  0.6938
10733SOL    HW233641   2.030   6.881   1.092  0.3387 -0.8595  0.9843
10734SOL     OW33642   3.044   7.790  12.379 -0.5301  0.0639 -0.5795
10734SOL    HW133643   3.125   7.837  12.392 -1.0636  0.9581 -0.4141
10734SOL    HW233644   3.056   7.741  12.298  0.6335 -0.8295  0.1072
10735SOL     OW33645   4.996   0.852   6.750  0.3073  0.0375 -0.3809
10735SOL    HW133646   4.914   0.818   6.786  0.2239 -4.0260 -3.6464
10735SOL    HW233647   4.970   0.931   6.703 -0.7996  1.2906  2.1301
10736SOL     OW33648   0.895   6.355   4.558 -0.2006  0.3483 -0.0451
10736SOL    HW133649   0.814   6.393   4.523 -0.4074  0.9326  1.0086
10736SOL    HW233650   0.866   6.302   4.632  0.4366  1.2164  0.8506
10737SOL     OW33651   7.356   7.309  11.007  0.4444  0.5231 -0.3675
10737SOL    HW133652   7.370   7.387  10.953 -0.3232  0.1159 -1.1801
10737SOL    HW233653   7.321   7.244  10.946 -0.4730  0.0525  0.6384
10738SOL     OW33654   0.049   4.437   8.232 -0.3710 -0.0458 -0.2046
10738SOL    HW133655   0.011   4.525   8.234  1.0379  0.6519 -1.7568
10738SOL    HW233656   0.005   4.394   8.158 -0.4516 -0.3750  0.0300
10739SOL     OW33657   5.556   0.123   7.508 -0.0143  0.2882  0.0124
10739SOL    HW133658   5.499   0.085   7.441 -0.0361  0.8851 -0.3095
10739SOL    HW233659   5.644   0.095   7.483 -0.1676 -0.7773  0.6038
10740SOL     OW33660   3.554   6.837   0.772  0.4261  0.6314  0.2098
10740SOL    HW133661   3.595   6.922   0.792 -0.1452  1.6055 -2.3210
10740SOL    HW233662   3.615   6.795   0.711  0.4583 -0.5967  1.0582
10741SOL     OW33663   6.383   2.167   0.600 -0.2415  0.5834 -0.1628
10741SOL    HW133664   6.342   2.081   0.587  0.0195  0.4599 -0.1552
10741SOL    HW233665   6.440   2.156   0.675 -1.2134  1.1178  0.6831
10742SOL     OW33666   5.778   0.025   4.355 -0.5155 -0.3401 -0.0288
10742SOL    HW133667   5.719   0.029   4.280 -0.7607 -0.3257  0.1633
10742SOL    HW233668   5.839   0.097   4.342 -0.4769 -0.4183 -0.2824
10743SOL     OW33669   3.535   7.113   1.311 -0.1739  0.0999  0.0848
10743SOL    HW133670   3.528   7.174   1.384 -0.4976  0.5731 -0.3309
10743SOL    HW233671   3.460   7.135   1.255  0.9597  0.8327 -1.1917
10744SOL     OW33672   6.164   5.629   8.757 -0.4361 -0.4380 -0.2470
10744SOL    HW133673   6.125   5.669   8.679  0.7864 -0.0629 -0.6925
10744SOL    HW233674   6.248   5.674   8.768 -0.8017 -0.1230  1.6030
10745SOL     OW33675   1.658   3.368   9.032 -0.1858  0.4359 -0.0119
10745SOL    HW133676   1.713   3.418   9.092 -0.5195 -0.3249  0.9479
10745SOL    HW233677   1.696   3.280   9.031  0.0665  0.5427 -1.2543
10746SOL     OW33678   4.941   7.344   2.740  0.0359 -0.5372  0.8210
10746SOL    HW133679   4.873   7.335   2.807 -0.5635 -2.7361  0.0002
10746SOL    HW233680   4.918   7.279   2.674  1.4547  0.5369 -0.8104
10747SOL     OW33681   0.886   7.211   3.478 -0.1674 -0.3941 -0.5235
10747SOL    HW133682   0.982   7.210   3.470 -0.1658  0.9589 -1.0217
10747SOL    HW233683   0.862   7.120   3.495  1.3901 -0.4252  2.1144
10748SOL     OW33684   7.039   2.767   8.728 -0.5398  0.2064 -0.3131
10748SOL    HW133685   7.078   2.855   8.736 -0.9165  0.3006  0.6308
10748SOL    HW233686   7.009   2.747   8.816 -1.0827 -0.5922 -0.6758
10749SOL     OW33687   6.796   2.391   0.891  0.0652  0.1767 -0.1268
10749SOL    HW133688   6.759   2.474   0.923  1.1538  0.7150 -0.2074
10749SOL    HW233689   6.881   2.416   0.855  1.0105 -1.1743  1.0609
10750SOL     OW33690   7.875   6.260   7.555 -0.3628  0.1178 -0.7755
10750SOL    HW133691   7.823   6.289   7.629  0.6799  0.1541 -0.0372
10750SOL    HW233692   7.950   6.215   7.594  1.5409  2.3326 -1.6769
10751SOL     OW33693   1.577   5.774   6.612  0.3567 -0.5979  0.0174
10751SOL    HW133694   1.620   5.713   6.553 -0.1478 -1.1200  0.1824
10751SOL    HW233695   1.641   5.844   6.626  1.0204 -1.1980  0.0099
10752SOL     OW33696   6.424   0.200   3.011 -0.1479 -0.1633 -0.8529
10752SOL    HW133697   6.352   0.142   2.986 -0.6339  0.0621 -0.0240
10752SOL    HW233698   6.472   0.151   3.079  0.4155 -0.2591 -1.3062
10753SOL     OW33699   1.518   7.635   0.487 -0.0691 -0.6857  0.3200
10753SOL    HW133700   1.614   7.627   0.490 -0.2336 -2.9153  2.1486
10753SOL    HW233701   1.488   7.555   0.444 -1.1347  0.7494 -1.8210
10754SOL     OW33702   7.670   2.952   8.778  0.2897  0.2611 -0.1945
10754SOL    HW133703   7.745   2.992   8.821  1.2787  1.1910 -2.6079
10754SOL    HW233704   7.658   2.868   8.823  1.5295  0.9372  1.4958
10755SOL     OW33705   6.570   4.199   9.719  0.1546  0.2107  0.1148
10755SOL    HW133706   6.539   4.204   9.628  0.1998 -0.7159  0.0334
10755SOL    HW233707   6.598   4.108   9.729  0.0643  0.2831  1.0890
10756SOL     OW33708   6.297   1.821   2.977  0.0540  0.0963  0.3687
10756SOL    HW133709   6.241   1.745   2.962 -1.2244  1.1775 -0.6989
10756SOL    HW233710   6.385   1.785   2.987 -0.6429 -1.5739  0.8761
10757SOL     OW33711   6.304   0.432   6.923 -0.0461  0.0765  0.4543
10757SOL    HW133712   6.302   0.476   6.838 -1.2879  3.2765  1.9740
10757SOL    HW233713   6.236   0.364   6.916  0.5011 -0.3572 -1.3336
10758SOL     OW33714   4.636   2.778   1.441  0.0569 -0.1728 -0.2470
10758SOL    HW133715   4.690   2.854   1.466 -0.0877  0.4967 -1.8715
10758SOL    HW233716   4.547   2.805   1.462  0.2182 -0.9946  1.7390
10759SOL     OW33717   6.125   0.612  11.905  0.0562  0.3803 -0.3433
10759SOL    HW133718   6.151   0.550  11.973 -3.3630 -1.0990 -0.2062
10759SOL    HW233719   6.128   0.698  11.948  0.7383 -0.1790  0.7698
10760SOL     OW33720   2.078   1.990  11.509 -0.0860 -0.7129 -0.0541
10760SOL    HW133721   2.110   1.990  11.600 -0.7420  1.6581  0.2312
10760SOL    HW233722   2.106   2.074  11.473 -0.7458 -1.1726 -1.7304
10761SOL     OW33723   2.810   4.238   5.724 -0.3937 -0.1315  0.1150
10761SOL    HW133724   2.903   4.226   5.707  0.1977  1.3972  1.8974
10761SOL    HW233725   2.804   4.250   5.819 -2.4207 -0.2358  0.0571
10762SOL     OW33726   3.471   6.640  11.259  0.3073 -0.2197 -0.2262
10762SOL    HW133727   3.477   6.670  11.350  0.6213  1.5117 -0.7790
10762SOL    HW233728   3.399   6.577  11.259  0.5916 -0.5789  1.3008
10763SOL     OW33729   4.276   5.664   4.826 -0.8128 -0.1488 -0.1835
10763SOL    HW133730   4.307   5.674   4.736 -1.0488 -0.1790 -0.2689
10763SOL    HW233731   4.337   5.715   4.878 -0.0987 -0.9084 -0.2470
10764SOL     OW33732   1.535   0.417   1.613  0.9525 -0.1095  0.0280
10764SOL    HW133733   1.559   0.477   1.684  2.0442 -1.1897  0.6091
10764SOL    HW233734   1.459   0.369   1.646  0.8854  0.0387  0.0895
10765SOL     OW33735   2.684   6.899   8.595  0.2428  0.0100 -0.1814
10765SOL    HW133736   2.663   6.977   8.544  0.3538  0.1527 -0.0059
10765SOL    HW233737   2.768   6.918   8.636 -1.0814  1.0298  2.2990
10766SOL     OW33738   0.464   1.626   9.970  0.2409 -0.0502  0.2197
10766SOL    HW133739   0.413   1.660  10.044 -1.7480  0.6213 -1.3633
10766SOL    HW233740   0.518   1.556  10.008  0.8971  1.6342  2.6816
10767SOL     OW33741   2.294   0.570   9.477 -0.1017  0.1415  0.3918
10767SOL    HW133742   2.294   0.586   9.383 -0.0176 -0.0467  0.3595
10767SOL    HW233743   2.385   0.549   9.498 -0.1411  0.0743  0.4970
10768SOL     OW33744   2.615   6.623  12.301 -0.0500  0.3356 -0.5952
10768SOL    HW133745   2.672   6.586  12.368  0.0002 -0.0183 -0.8258
10768SOL    HW233746   2.529   6.584  12.319  0.1461 -0.4295 -1.2372
10769SOL     OW33747   3.326   4.975   7.994  0.0185 -0.1096 -0.1373
10769SOL    HW133748   3.402   5.003   7.943 -0.0510 -0.8148 -0.6547
10769SOL    HW233749   3.255   4.969   7.931 -0.1478 -0.7003  0.0966
10770SOL     OW33750   6.081   6.284   6.743  0.9446  0.2121  0.6200
10770SOL    HW133751   5.995   6.251   6.768  0.7151 -0.3232 -0.7692
10770SOL    HW233752   6.139   6.208   6.750  0.5807 -0.3579 -1.7939
10771SOL     OW33753   0.737   7.168   0.158  0.0258  0.1898 -0.4664
10771SOL    HW133754   0.730   7.073   0.148 -0.6340  0.3190 -1.3289
10771SOL    HW233755   0.828   7.183   0.181  0.3154 -0.5966 -1.0621
10772SOL     OW33756   4.303   3.411   2.361 -0.2839  0.1777 -0.3385
10772SOL    HW133757   4.323   3.412   2.454  0.6449  0.6509 -0.5288
10772SOL    HW233758   4.208   3.418   2.356 -0.3398  0.1204  0.5697
10773SOL     OW33759   6.645   0.215  12.217 -0.4614 -0.1130 -0.1513
10773SOL    HW133760   6.648   0.310  12.231 -0.6816 -0.0144 -0.7531
10773SOL    HW233761   6.648   0.178  12.305  0.5094  0.4247  0.0569
10774SOL     OW33762   3.274   1.623   8.146  0.0946 -0.2283  0.5177
10774SOL    HW133763   3.254   1.568   8.222 -1.4074 -1.0300 -0.3906
10774SOL    HW233764   3.309   1.563   8.081  0.2069  0.2220  0.1537
10775SOL     OW33765   0.606   2.700   1.389  0.1471 -0.4472 -0.2276
10775SOL    HW133766   0.662   2.622   1.382  0.1349 -0.4462 -0.3381
10775SOL    HW233767   0.662   2.772   1.358  1.4013  0.1841  3.1555
10776SOL     OW33768   7.844   5.738   5.195 -0.1088 -0.2297 -0.1956
10776SOL    HW133769   7.874   5.648   5.209 -1.0645 -0.4216  0.8031
10776SOL    HW233770   7.884   5.764   5.113  0.0298 -1.6480 -0.6120
10777SOL     OW33771   0.772   2.867   8.967  0.0841  0.3056 -0.0974
10777SOL    HW133772   0.842   2.823   8.920 -1.8074 -0.5859 -2.2837
10777SOL    HW233773   0.777   2.958   8.938 -3.1976 -0.7552 -5.4021
10778SOL     OW33774   4.607   6.454   6.258 -0.1222  0.5719  0.0775
10778SOL    HW133775   4.599   6.539   6.300  2.2162  0.5707  0.6382
10778SOL    HW233776   4.668   6.405   6.313 -1.0757 -1.3540 -0.4627
10779SOL     OW33777   7.225   0.732   8.258  0.0454 -0.3320  0.1592
10779SOL    HW133778   7.156   0.668   8.276  1.3103 -1.4512  1.2112
10779SOL    HW233779   7.291   0.716   8.326  1.0936  1.0795 -0.4795
10780SOL     OW33780   1.857   1.066   6.051 -0.2057  0.3583 -0.0054
10780SOL    HW133781   1.879   1.110   5.969  2.2077  1.5988  1.2158
10780SOL    HW233782   1.932   1.010   6.070 -0.4295  0.5716  1.6746
10781SOL     OW33783   1.869   7.327   8.572  0.9070  0.2004 -0.1564
10781SOL    HW133784   1.832   7.345   8.658  1.1269  0.5530 -0.1299
10781SOL    HW233785   1.815   7.379   8.512  0.0389 -0.9273 -0.3751
10782SOL     OW33786   4.364   3.360   3.551 -0.1300  0.1907 -0.6208
10782SOL    HW133787   4.350   3.390   3.641  2.4796  0.1928 -0.1328
10782SOL    HW233788   4.363   3.440   3.499 -1.2180  0.2358 -0.5364
10783SOL     OW33789   6.286   3.402   6.599  0.5349 -0.0389 -0.2818
10783SOL    HW133790   6.368   3.395   6.648  1.4911 -1.4101 -1.9404
10783SOL    HW233791   6.237   3.323   6.624  0.4939 -0.1084 -0.5721
10784SOL     OW33792   4.667   4.089   5.642 -0.3821  0.1959  0.2337
10784SOL    HW133793   4.691   4.165   5.588  1.6972 -1.2997 -1.0860
10784SOL    HW233794   4.660   4.125   5.730 -0.3909  2.0960 -0.4820
10785SOL     OW33795   1.178   1.781   9.040  0.0510  0.3686 -0.1241
10785SOL    HW133796   1.206   1.826   9.120 -0.7083  0.7427 -0.0673
10785SOL    HW233797   1.260   1.746   9.003  0.1662 -2.0464  2.1364
10786SOL     OW33798   7.349   5.512  11.693 -0.1914 -0.1772 -0.3183
10786SOL    HW133799   7.319   5.519  11.784  0.6264  0.0893 -0.0546
10786SOL    HW233800   7.345   5.601  11.660  1.1651  0.0277  0.0180
10787SOL     OW33801   4.224   1.722   2.956  0.0403 -0.0991  0.3536
10787SOL    HW133802   4.180   1.641   2.930  0.6913 -0.9106  1.6557
10787SOL    HW233803   4.317   1.704   2.943  0.0859  1.3247 -1.6449
10788SOL     OW33804   5.999   4.854  12.348  0.5387  0.1942 -0.1628
10788SOL    HW133805   5.927   4.865  12.286 -0.8924  0.6520  1.4986
10788SOL    HW233806   6.078   4.867  12.296 -0.5404 -0.7108 -2.1290
10789SOL     OW33807   4.085   2.292   7.947  0.2218 -0.4706 -0.3195
10789SOL    HW133808   4.142   2.276   8.022  1.7233 -0.5617 -1.4533
10789SOL    HW233809   4.106   2.223   7.884 -1.0290 -0.4054 -0.8531
10790SOL     OW33810   5.640   4.804   4.265  0.2348 -0.1159 -0.6700
10790SOL    HW133811   5.608   4.715   4.279 -0.7426  0.2791 -0.2759
10790SOL    HW233812   5.734   4.799   4.281  0.0278 -0.8606  0.4394
10791SOL     OW33813   7.330   7.674   5.004  0.6394  0.3641 -0.3954
10791SOL    HW133814   7.334   7.594   4.953  1.5631 -0.2827  0.6561
10791SOL    HW233815   7.243   7.673   5.044  0.3414  0.3124 -1.0387
10792SOL     OW33816   0.809   3.368   1.823  0.5757  0.4693 -0.2955
10792SOL    HW133817   0.879   3.331   1.770  0.6419 -3.1153  1.9474
10792SOL    HW233818   0.729   3.340   1.780  0.4271  2.7167 -1.6510
10793SOL     OW33819   4.758   7.228  11.659 -0.3771 -0.0542 -0.3726
10793SOL    HW133820   4.698   7.159  11.632  1.2844 -1.0482 -1.7306
10793SOL    HW233821   4.826   7.183  11.709 -0.4098  0.9487  0.6140
10794SOL     OW33822   0.551   5.121  11.611 -0.4520 -0.0516 -0.2107
10794SOL    HW133823   0.498   5.055  11.656  0.1207 -0.9171 -0.7767
10794SOL    HW233824   0.491   5.158  11.545 -0.2633 -1.3345 -1.1424
10795SOL     OW33825   4.075   7.931   0.177 -0.2990  0.1904  0.8699
10795SOL    HW133826   4.029   7.978   0.247 -2.4042 -0.1682 -0.1847
10795SOL    HW233827   4.048   7.975   0.096  1.0885 -0.1888  0.1606
10796SOL     OW33828   7.630   6.837   7.454  0.6020 -0.3018  0.2029
10796SOL    HW133829   7.571   6.901   7.494 -1.6135 -1.6146 -0.8036
10796SOL    HW233830   7.712   6.886   7.440  0.5090  1.0334  3.4507
10797SOL     OW33831   5.459   5.044  11.838  0.1413 -0.6604 -0.0785
10797SOL    HW133832   5.399   5.050  11.911 -0.1969 -0.3697 -0.3763
10797SOL    HW233833   5.403   5.041  11.760  0.5018 -0.6491 -0.3453
10798SOL     OW33834   7.836   0.936   5.607 -0.7514  0.0964  0.2354
10798SOL    HW133835   7.765   0.875   5.585 -1.5195  1.3418 -0.8370
10798SOL    HW233836   7.800   1.023   5.590  0.4506  0.8656  1.3797
10799SOL     OW33837   7.631   7.598   1.802  0.1959  0.2922 -0.4349
10799SOL    HW133838   7.642   7.555   1.718  0.7433 -1.2165  0.3661
10799SOL    HW233839   7.538   7.590   1.822 -0.1303  1.5750 -1.3397
10800SOL     OW33840   6.333   2.349   3.114  0.0546  0.3062  0.1581
10800SOL    HW133841   6.341   2.366   3.020  1.2595  0.8319  0.3344
10800SOL    HW233842   6.335   2.254   3.122  0.2478  0.2673 -0.3230
10801SOL     OW33843   2.396   2.080  10.627 -0.2060 -0.0644  0.0300
10801SOL    HW133844   2.345   2.150  10.667  1.0306  1.4103 -0.8709
10801SOL    HW233845   2.395   2.009  10.692 -0.5061  1.2239  1.4965
10802SOL     OW33846   1.745   7.134   2.955 -0.4194 -0.4729  0.0945
10802SOL    HW133847   1.676   7.101   3.012 -0.9044 -1.0114 -0.7785
10802SOL    HW233848   1.766   7.221   2.989 -0.1849 -1.0606  1.5154
10803SOL     OW33849   5.566   2.826  11.740 -0.4706 -0.7066 -0.2440
10803SOL    HW133850   5.636   2.850  11.800 -0.2871 -1.2248 -0.2511
10803SOL    HW233851   5.544   2.736  11.762 -0.5202 -0.8467 -0.8324
10804SOL     OW33852   7.715   0.039   8.584  0.0883  0.4745 -0.0369
10804SOL    HW133853   7.670  -0.036   8.623 -0.1513  0.2031 -0.8270
10804SOL    HW233854   7.802   0.006   8.562 -0.4283  0.0405 -1.5565
10805SOL     OW33855   5.406   1.627   5.597 -0.6216  0.3491 -0.1964
10805SOL    HW133856   5.364   1.646   5.680  1.5921 -1.0895  1.3733
10805SOL    HW233857   5.434   1.536   5.604 -0.7213  0.0296 -2.7216
10806SOL     OW33858   5.585   7.440   3.074 -0.1204  0.3188  0.1362
10806SOL    HW133859   5.523   7.370   3.054  1.1638 -0.2052 -2.3367
10806SOL    HW233860   5.530   7.516   3.096 -1.5527 -1.5303  3.6641
10807SOL     OW33861   6.741   6.091   7.767 -0.1256  0.5020  0.4053
10807SOL    HW133862   6.765   6.081   7.675 -0.0843  0.6695  0.3976
10807SOL    HW233863   6.674   6.159   7.767  1.9744  2.7278  0.7915
10808SOL     OW33864   2.627   4.391  10.194 -0.2904  0.6374 -0.1187
10808SOL    HW133865   2.721   4.399  10.178 -0.1136  0.6458  0.8619
10808SOL    HW233866   2.599   4.317  10.140  0.0674  1.2910 -1.2192
10809SOL     OW33867   0.449   2.573   0.910  0.2201 -0.2907 -0.1911
10809SOL    HW133868   0.435   2.533   0.996  1.0026 -0.6051 -0.1999
10809SOL    HW233869   0.535   2.615   0.917 -0.1168  0.4564 -0.5333
10810SOL     OW33870   5.730   6.689  11.605 -0.8925 -0.2318  0.3841
10810SOL    HW133871   5.708   6.599  11.580  0.9204 -0.9108  1.0268
10810SOL    HW233872   5.725   6.739  11.524  0.6444 -1.4799 -0.5282
10811SOL     OW33873   7.457   6.009   6.507  0.1647 -0.2678 -0.1726
10811SOL    HW133874   7.531   6.016   6.447 -0.5439 -0.9784 -1.1793
10811SOL    HW233875   7.450   5.915   6.525 -1.0316 -0.3275 -0.8381
10812SOL     OW33876   1.840   4.670   9.229 -0.0820 -0.0791  0.7121
10812SOL    HW133877   1.838   4.590   9.177 -0.7467 -1.2252  2.3985
10812SOL    HW233878   1.802   4.737   9.172  0.4091 -0.9677 -0.7086
10813SOL     OW33879   2.978   1.758  10.417  0.7573 -0.0101 -0.2589
10813SOL    HW133880   2.899   1.753  10.363  1.6731  0.9214 -1.7305
10813SOL    HW233881   2.977   1.848  10.451  0.3573 -0.4875  1.0766
10814SOL     OW33882   7.117   3.328   9.224  0.2605  0.3647 -0.0903
10814SOL    HW133883   7.101   3.310   9.131 -0.8907  2.4501 -0.3640
10814SOL    HW233884   7.133   3.423   9.228 -2.0485  0.7716  2.0710
10815SOL     OW33885   0.799   0.161   9.349 -0.4632  0.5284 -0.4419
10815SOL    HW133886   0.706   0.148   9.369 -0.8294  1.6043 -1.3229
10815SOL    HW233887   0.827   0.227   9.412  0.0690 -0.7413  0.6919
10816SOL     OW33888   1.792   7.164   0.725 -0.2083 -0.6643 -0.3396
10816SOL    HW133889   1.703   7.153   0.760 -0.1327 -0.1381  0.0163
10816SOL    HW233890   1.844   7.192   0.799  0.5374 -2.1898 -0.2496
10817SOL     OW33891   0.383   7.296   3.322  0.7499  0.4724  0.6991
10817SOL    HW133892   0.427   7.381   3.328 -0.2898  1.1061 -0.4359
10817SOL    HW233893   0.391   7.271   3.230 -1.1403  0.5581  0.4784
10818SOL     OW33894   3.799   5.630  11.409  0.5451  0.0269  0.3776
10818SOL    HW133895   3.880   5.674  11.384  0.6953  0.5693  1.7545
10818SOL    HW233896   3.823   5.538  11.417  0.8234  0.0605 -0.0510
10819SOL     OW33897   3.045   6.927   0.596  0.1997 -0.2325  0.0562
10819SOL    HW133898   3.131   6.965   0.614  0.1374  0.6449 -1.3545
10819SOL    HW233899   2.986   6.970   0.659  0.3240  1.2821 -0.8152
10820SOL     OW33900   6.658   3.156  10.380 -0.4653  0.5613  0.1892
10820SOL    HW133901   6.580   3.179  10.429 -0.9161  0.0872 -0.2987
10820SOL    HW233902   6.693   3.078  10.425 -0.7381  0.2777 -0.0858
10821SOL     OW33903   0.226   4.927   5.837 -0.2954  0.4294  0.1410
10821SOL    HW133904   0.164   4.896   5.903  0.5114 -2.4086 -0.3099
10821SOL    HW233905   0.198   4.883   5.756  0.1746  1.9675 -0.9052
10822SOL     OW33906   0.739   1.308  10.849  0.0413  0.1254 -0.5768
10822SOL    HW133907   0.777   1.344  10.768 -0.1277 -0.4388 -0.9121
10822SOL    HW233908   0.704   1.384  10.895 -0.6499  0.3578 -1.4556
10823SOL     OW33909   7.184   7.954   0.261  0.7690 -0.1132  0.3396
10823SOL    HW133910   7.125   7.938   0.335  0.1780  1.0582  0.1501
10823SOL    HW233911   7.222   8.040   0.280  2.3290 -0.7766  0.3816
10824SOL     OW33912   6.590   3.682  12.015 -0.2253 -0.4559 -0.1140
10824SOL    HW133913   6.632   3.649  12.094  0.7823  0.7179 -0.1354
10824SOL    HW233914   6.655   3.739  11.975 -1.4360  0.5381 -0.7485
10825SOL     OW33915   0.618   5.906   3.564  0.1414 -0.1807  0.4060
10825SOL    HW133916   0.551   5.921   3.631  0.0626  0.3120  0.2253
10825SOL    HW233917   0.689   5.965   3.587 -0.4356  0.9938 -0.6796
10826SOL     OW33918   7.905   1.192   3.056  0.0192 -0.4426  0.2873
10826SOL    HW133919   7.933   1.259   3.119  0.8944 -0.2298 -0.3168
10826SOL    HW233920   7.874   1.241   2.980  1.2064 -0.7064 -0.3899
10827SOL     OW33921   0.556   5.531   6.031 -0.1724  0.0855  0.1006
10827SOL    HW133922   0.472   5.510   5.990 -0.6343 -0.6592  1.3890
10827SOL    HW233923   0.587   5.448   6.068  0.8412  0.4765  0.1739
10828SOL     OW33924   3.935   5.482   6.403 -0.5916  0.2444 -0.5752
10828SOL    HW133925   4.009   5.539   6.386 -0.2663 -0.0887 -0.3106
10828SOL    HW233926   3.951   5.448   6.492 -1.4869  0.8150 -0.1841
10829SOL     OW33927   3.632   0.542   3.359 -0.3729 -0.1776  0.1150
10829SOL    HW133928   3.576   0.484   3.307 -1.0605  0.7955 -0.2570
10829SOL    HW233929   3.576   0.572   3.431  0.2720 -0.7198  0.8669
10830SOL     OW33930   3.216   0.593   4.160  0.1234 -0.1561  0.0494
10830SOL    HW133931   3.306   0.569   4.141 -0.4816 -2.1706 -0.5446
10830SOL    HW233932   3.223   0.666   4.222  2.1298  0.4733 -0.8299
10831SOL     OW33933   5.235   1.498  11.968  0.1281  0.8625 -0.5832
10831SOL    HW133934   5.304   1.524  12.028 -0.8622 -0.2691  1.1369
10831SOL    HW233935   5.170   1.454  12.023 -0.7558 -0.4060 -2.5083
10832SOL     OW33936   1.795   4.010   8.119  0.1894  0.0922 -0.3605
10832SOL    HW133937   1.767   3.995   8.029 -0.2468  0.2563 -0.2534
10832SOL    HW233938   1.717   4.044   8.164  0.0411 -1.1508  0.3851
10833SOL     OW33939   2.557   1.096   3.894  0.3118 -0.8540  0.1025
10833SOL    HW133940   2.502   1.146   3.835  1.5516  0.3653 -0.0761
10833SOL    HW233941   2.627   1.062   3.839  1.6033  0.4797  0.8263
10834SOL     OW33942   6.310   2.722   2.934 -0.2957  0.1786 -0.3923
10834SOL    HW133943   6.257   2.683   2.865  0.5772 -0.2949 -0.8187
10834SOL    HW233944   6.252   2.724   3.010  0.1009 -3.8382  0.2753
10835SOL     OW33945   6.396   7.815   0.450 -0.1842 -0.5676  0.3274
10835SOL    HW133946   6.481   7.771   0.445 -0.5880 -1.4446  0.9090
10835SOL    HW233947   6.374   7.836   0.359  0.3087 -0.9990  0.1056
10836SOL     OW33948   0.811   6.058  10.479  0.2297 -0.1840 -0.4668
10836SOL    HW133949   0.795   6.035  10.570 -0.5996 -1.5217 -0.9148
10836SOL    HW233950   0.896   6.102  10.480 -0.1680  0.6367  1.0492
10837SOL     OW33951   4.650   7.608  10.381 -0.9823  0.4914  0.2000
10837SOL    HW133952   4.631   7.684  10.436 -2.2499  1.7327 -1.8008
10837SOL    HW233953   4.572   7.554  10.386 -1.2696  0.8108 -0.6445
10838SOL     OW33954   3.567   7.493  11.748  0.1288  0.2797 -0.6258
10838SOL    HW133955   3.503   7.555  11.716 -0.3648 -0.0257 -0.2438
10838SOL    HW233956   3.611   7.461  11.669  1.1985  1.9466 -0.7633
10839SOL     OW33957   7.459   3.900   1.542 -0.1843  0.0951 -0.2309
10839SOL    HW133958   7.365   3.898   1.561 -0.5286 -3.1167 -1.6283
10839SOL    HW233959   7.487   3.810   1.554  2.8600  1.0330  0.4649
10840SOL     OW33960   7.248   4.300   2.150  0.1609 -0.1113  0.3015
10840SOL    HW133961   7.338   4.331   2.147 -0.0908  0.7732  1.1601
10840SOL    HW233962   7.234   4.277   2.242 -1.0406  1.5367  0.5661
10841SOL     OW33963   4.208   7.233  11.802  0.2713 -0.5553 -0.0943
10841SOL    HW133964   4.217   7.253  11.896 -1.2889  0.4069 -0.1141
10841SOL    HW233965   4.194   7.139  11.799  0.3535 -0.5968  0.6353
10842SOL     OW33966   6.697   6.791   8.110 -0.4134 -0.0576  0.1369
10842SOL    HW133967   6.709   6.863   8.048  0.6501 -0.0687  0.3087
10842SOL    HW233968   6.676   6.833   8.193  1.5041  0.1767  0.5630
10843SOL     OW33969   5.296   3.982  10.863 -0.0153  0.2705  0.5250
10843SOL    HW133970   5.201   3.990  10.852  0.0528 -0.8422 -1.1202
10843SOL    HW233971   5.331   4.060  10.820 -0.1527  0.5041  0.8282
10844SOL     OW33972   2.411   4.695   9.865  0.6591  0.3024 -0.0577
10844SOL    HW133973   2.420   4.725   9.774 -2.1973  1.9280  0.0634
10844SOL    HW233974   2.446   4.767   9.917  1.0151 -0.0173  0.1426
10845SOL     OW33975   1.434   3.476   8.869  0.0607 -0.2610 -0.0199
10845SOL    HW133976   1.489   3.416   8.919  1.7346  1.3904  0.2263
10845SOL    HW233977   1.458   3.564   8.900  1.3239  0.9024 -3.7202
10846SOL     OW33978   5.770   6.122   5.788  0.9191  0.6427  0.9713
10846SOL    HW133979   5.770   6.162   5.701 -0.3220 -0.0362  0.6375
10846SOL    HW233980   5.746   6.193   5.847 -0.3202  0.6372  0.4985
10847SOL     OW33981   6.060   4.454   1.584  0.2172 -0.1349  0.1171
10847SOL    HW133982   5.974   4.472   1.547  0.8145  3.1819  0.0071
10847SOL    HW233983   6.096   4.385   1.528 -1.8122 -0.6391 -0.6592
10848SOL     OW33984   7.082   0.515  11.728  0.1677  0.4106  0.2498
10848SOL    HW133985   7.168   0.479  11.706  0.1948 -0.2722  1.3754
10848SOL    HW233986   7.100   0.586  11.789  0.0206  1.4168 -0.8502
10849SOL     OW33987   0.738   4.438   5.963 -0.5011  0.6801 -0.3758
10849SOL    HW133988   0.693   4.492   5.898  1.0257  1.9136 -0.4527
10849SOL    HW233989   0.764   4.499   6.031 -0.1321 -0.2444  0.3303
10850SOL     OW33990   4.461   7.408   9.066 -0.6088  0.4526 -0.2471
10850SOL    HW133991   4.473   7.360   9.148  2.9475  0.1886 -0.7581
10850SOL    HW233992   4.474   7.342   8.998 -2.9320  0.7871 -1.0991
10851SOL     OW33993   6.925   5.821   0.660 -0.4974  0.1557 -0.4258
10851SOL    HW133994   6.865   5.839   0.588 -0.7965  3.5157  0.5185
10851SOL    HW233995   6.869   5.802   0.735 -0.2549 -0.2312 -0.3350
10852SOL     OW33996   2.431   1.967   4.763 -0.2118 -0.3685  0.6265
10852SOL    HW133997   2.505   2.027   4.754  1.2885 -2.1396  0.4102
10852SOL    HW233998   2.380   2.002   4.836  0.6888  1.0485  0.6146
10853SOL     OW33999   7.960   1.836   7.244  0.2306 -0.1879 -0.3445
10853SOL    HW134000   8.050   1.805   7.234 -0.6153 -2.9263 -0.2727
10853SOL    HW234001   7.934   1.806   7.331 -1.5844 -2.0318 -1.4065
10854SOL     OW34002   7.420   7.920  10.132  0.0920  0.3800  0.2208
10854SOL    HW134003   7.347   7.928  10.070  0.9579 -0.1463 -0.9074
10854SOL    HW234004   7.472   7.847  10.098  1.7449  1.4462  0.3437
10855SOL     OW34005   4.739   0.053   8.915 -0.1058 -0.2575  0.3208
10855SOL    HW134006   4.693   0.117   8.861  1.7233  1.5010  0.6808
10855SOL    HW234007   4.717   0.077   9.005  0.4610 -0.2099  0.4543
10856SOL     OW34008   7.679   0.337   0.663  0.0163  0.1373 -0.4272
10856SOL    HW134009   7.738   0.401   0.701  0.8674 -1.3932  0.9914
10856SOL    HW234010   7.598   0.345   0.714 -0.6797  1.4867 -1.6595
10857SOL     OW34011   3.624   7.903   3.493 -0.1509  0.2964  0.3150
10857SOL    HW134012   3.703   7.853   3.511 -0.4028 -0.4823 -0.6722
10857SOL    HW234013   3.579   7.908   3.578  0.6141  0.1764  0.7366
10858SOL     OW34014   5.266   1.578   6.306 -0.2120  0.2322 -0.1028
10858SOL    HW134015   5.209   1.558   6.380 -0.0011 -1.6745 -0.4038
10858SOL    HW234016   5.221   1.541   6.230  1.5496 -1.7979 -0.2834
10859SOL     OW34017   3.177   6.194   6.534 -0.1353  0.6243 -0.4011
10859SOL    HW134018   3.084   6.173   6.539  0.0775 -0.1707  0.8323
10859SOL    HW234019   3.217   6.115   6.497  0.1550  0.5625  0.0333
10860SOL     OW34020   3.442   5.738   3.585  0.4235 -0.1505  0.6121
10860SOL    HW134021   3.419   5.749   3.677  4.1156  2.1876  1.4451
10860SOL    HW234022   3.528   5.695   3.586 -0.0437 -1.3374 -1.8556
10861SOL     OW34023   3.436   6.250   2.438  0.2771  0.2904 -0.4761
10861SOL    HW134024   3.433   6.154   2.428  0.7337  0.1787  0.4024
10861SOL    HW234025   3.455   6.282   2.350  2.0020 -0.5458 -0.4468
10862SOL     OW34026   5.685   1.918   8.960  0.0738  0.0258  0.4329
10862SOL    HW134027   5.722   1.891   8.876 -0.6323 -0.0957  0.1524
10862SOL    HW234028   5.606   1.967   8.937  0.3244  0.7255  1.0001
10863SOL     OW34029   6.140   6.836   1.882  0.0993  0.4147 -0.1960
10863SOL    HW134030   6.150   6.926   1.912  0.3836  0.6186 -0.8870
10863SOL    HW234031   6.212   6.824   1.819  0.9565 -0.7495  0.9603
10864SOL     OW34032   5.681   2.981   3.737  0.0229 -0.1588  0.4847
10864SOL    HW134033   5.697   3.074   3.749  1.9977 -0.4089  0.2439
10864SOL    HW234034   5.768   2.945   3.716 -0.6281 -2.0917  0.9183
10865SOL     OW34035   3.427   2.413   1.195  0.4073  0.3074 -0.0967
10865SOL    HW134036   3.518   2.408   1.165  0.4599  0.1993  0.0768
10865SOL    HW234037   3.385   2.474   1.134  0.4854  0.0159 -0.4422
10866SOL     OW34038   2.311   3.586   7.993  0.3597 -0.2695  0.1453
10866SOL    HW134039   2.381   3.630   8.041 -0.3293 -0.2953  1.2108
10866SOL    HW234040   2.355   3.513   7.949  1.2014  0.4180 -0.1937
10867SOL     OW34041   2.010   7.805   0.524  0.2849  0.0886  0.1749
10867SOL    HW134042   1.951   7.879   0.519  0.8323  0.4710 -0.7413
10867SOL    HW234043   2.097   7.844   0.529  0.5646 -0.4897 -0.0941
10868SOL     OW34044   7.817   5.084   9.490 -0.3213  0.0924  0.0278
10868SOL    HW134045   7.793   5.001   9.530  1.9585 -0.3471  0.6068
10868SOL    HW234046   7.863   5.060   9.409  0.2610  0.7766  0.1389
10869SOL     OW34047   5.047   5.180   9.848  0.1214 -0.1581 -0.3458
10869SOL    HW134048   5.019   5.119   9.915  0.7191 -0.6474 -0.5358
10869SOL    HW234049   5.076   5.258   9.896  2.4003 -1.2281  0.1060
10870SOL     OW34050   0.063   1.429   3.908 -0.2638  0.2497  0.1890
10870SOL    HW134051   0.054   1.342   3.869 -2.3132 -0.3585  1.8412
10870SOL    HW234052   0.079   1.487   3.833  0.3117 -1.4146 -1.0389
10871SOL     OW34053   1.690   3.983   5.777 -1.0490 -1.1042 -0.2970
10871SOL    HW134054   1.715   3.957   5.866 -0.4407 -1.4966 -0.5708
10871SOL    HW234055   1.690   3.901   5.727  0.5937 -0.6785 -1.1092
10872SOL     OW34056   5.348   1.610  10.593  0.0211 -0.4527 -0.3901
10872SOL    HW134057   5.397   1.688  10.568  4.0495 -1.8631  2.0308
10872SOL    HW234058   5.264   1.644  10.625 -0.0717  2.3691 -3.1613
10873SOL     OW34059   6.461   7.722   6.396  0.0959 -0.5215 -0.5567
10873SOL    HW134060   6.400   7.655   6.428 -0.8746  0.0886 -1.0633
10873SOL    HW234061   6.412   7.804   6.403  1.5148  0.2689  0.7247
10874SOL     OW34062   2.203   4.970  11.799 -0.0440  0.1850  0.7563
10874SOL    HW134063   2.195   5.019  11.717  1.2022  0.6344  0.8853
10874SOL    HW234064   2.253   4.892  11.774  0.4117  0.3648  1.0975
10875SOL     OW34065   7.796   2.688   3.623  0.4148  0.1101  0.5303
10875SOL    HW134066   7.778   2.617   3.560  0.2709 -0.1079  0.8161
10875SOL    HW234067   7.891   2.688   3.633  0.5723  1.0385 -0.7261
10876SOL     OW34068   5.509   1.655   2.614 -0.1556 -0.6441 -0.4160
10876SOL    HW134069   5.442   1.700   2.563  1.2266 -0.3988 -2.1120
10876SOL    HW234070   5.589   1.663   2.561  1.7430  0.9049  2.4340
10877SOL     OW34071   1.431   7.254   2.182  0.0690 -0.0298 -0.4865
10877SOL    HW134072   1.337   7.238   2.183 -0.2278  1.0276 -2.8914
10877SOL    HW234073   1.471   7.168   2.170 -0.5357 -0.5265  0.9123
10878SOL     OW34074   0.231   7.426   7.675 -0.1680  0.1036  0.1745
10878SOL    HW134075   0.169   7.472   7.732  1.1048  1.4213  0.5560
10878SOL    HW234076   0.294   7.387   7.736  0.5489  0.5582 -0.2622
10879SOL     OW34077   0.602   5.089   2.173  0.6101 -0.5173 -0.8650
10879SOL    HW134078   0.637   5.062   2.257 -2.3248 -1.6508  0.1338
10879SOL    HW234079   0.561   5.010   2.137 -0.3140  0.4992 -2.1860
10880SOL     OW34080   5.619   7.078   1.932 -0.1468 -0.1105  0.0868
10880SOL    HW134081   5.669   7.083   2.013 -1.0162 -0.0360  0.6241
10880SOL    HW234082   5.611   6.984   1.914 -1.3069 -0.1912  0.9470
10881SOL     OW34083   0.696   5.736  11.902  0.4701 -0.0298  0.2624
10881SOL    HW134084   0.772   5.748  11.846 -0.4518 -0.8289 -1.2249
10881SOL    HW234085   0.646   5.817  11.892  0.6297  0.0907  0.4430
10882SOL     OW34086   1.745   4.331   2.213 -0.5094  0.9671 -0.4223
10882SOL    HW134087   1.827   4.300   2.252  0.3767  0.5470 -2.4516
10882SOL    HW234088   1.763   4.333   2.119 -3.2618 -0.4310 -1.0811
10883SOL     OW34089   1.025   6.829   9.352 -0.4196 -0.4685  0.1035
10883SOL    HW134090   1.044   6.748   9.400  0.4112 -0.2127  0.2300
10883SOL    HW234091   1.072   6.897   9.401 -1.8382  0.2528  0.5186
10884SOL     OW34092   7.339   0.226   8.144 -0.5072  0.5153 -0.7001
10884SOL    HW134093   7.372   0.305   8.188  1.7910 -1.0777  0.6355
10884SOL    HW234094   7.286   0.182   8.209 -0.1091 -0.0439 -0.7514
10885SOL     OW34095   7.370   1.727  10.287  0.6226  0.1782 -0.1454
10885SOL    HW134096   7.347   1.790  10.218 -1.3431 -0.4458 -0.1185
10885SOL    HW234097   7.395   1.648  10.240 -0.6955 -0.2399 -0.1787
10886SOL     OW34098   5.056   0.357   9.542  0.4012 -0.1483  0.4053
10886SOL    HW134099   4.966   0.329   9.525  0.3541 -0.3710  1.0066
10886SOL    HW234100   5.110   0.301   9.487  0.0312  1.9731 -2.3338
10887SOL     OW34101   0.322   5.932   6.932 -0.2183  0.7761  0.2127
10887SOL    HW134102   0.322   5.976   6.847  1.4472 -2.0103 -1.3548
10887SOL    HW234103   0.387   5.980   6.983  0.4781  1.0599 -0.9079
10888SOL     OW34104   1.659   6.809   2.692 -0.3847 -0.5227  0.1528
10888SOL    HW134105   1.619   6.806   2.605  0.9530  0.5883 -0.5360
10888SOL    HW234106   1.586   6.828   2.751 -1.1956 -0.5710 -0.7996
10889SOL     OW34107   1.014   2.674   7.782 -0.4315  0.6662 -0.0260
10889SOL    HW134108   1.038   2.626   7.861  0.9047 -0.6342 -1.1677
10889SOL    HW234109   0.918   2.668   7.778 -0.3308 -1.6613  0.0405
10890SOL     OW34110   0.247   6.485   9.709 -0.1736 -0.0915  0.2161
10890SOL    HW134111   0.203   6.434   9.641 -0.9796  0.3612  0.3818
10890SOL    HW234112   0.195   6.565   9.717  1.6653  1.2952 -0.8048
10891SOL     OW34113   3.993   4.519   3.829 -0.1888 -0.1883  0.3584
10891SOL    HW134114   4.057   4.485   3.892  0.1988 -0.4355 -0.1641
10891SOL    HW234115   3.949   4.441   3.795  0.9759 -0.2225 -1.1378
10892SOL     OW34116   1.069   5.905   6.308  0.6105 -0.2830 -0.0663
10892SOL    HW134117   1.025   5.990   6.317 -2.4178 -1.8087  0.6183
10892SOL    HW234118   1.161   5.925   6.322  0.1834  3.0626 -1.1030
10893SOL     OW34119   6.294   0.076  11.974 -0.2572 -0.0258 -0.1200
10893SOL    HW134120   6.279   0.065  12.068 -2.3605  2.5861 -0.0240
10893SOL    HW234121   6.364   0.142  11.968  1.0472 -1.3871 -0.4670
10894SOL     OW34122   2.283   2.329   8.281 -0.0411  0.2966 -0.5343
10894SOL    HW134123   2.231   2.378   8.345 -1.5084  1.6610 -2.6221
10894SOL    HW234124   2.334   2.267   8.333 -1.2052  1.2682  1.9085
10895SOL     OW34125   1.004   1.144  10.346 -0.0542  0.4221  0.2532
10895SOL    HW134126   1.065   1.103  10.285 -1.2307 -1.2572  0.1279
10895SOL    HW234127   1.033   1.116  10.432 -0.7708 -0.6033  0.1763
10896SOL     OW34128   6.627   4.099   3.544  0.1108  0.5512 -0.1132
10896SOL    HW134129   6.547   4.144   3.520  0.6864  0.8554 -1.5276
10896SOL    HW234130   6.649   4.045   3.469  0.7302 -0.2636  0.6233
10897SOL     OW34131   0.443   0.630  12.190  0.0557  0.0355 -0.5845
10897SOL    HW134132   0.513   0.681  12.230  0.1393  0.2539 -1.0132
10897SOL    HW234133   0.397   0.692  12.134  0.6796 -0.5588 -1.7793
10898SOL     OW34134   5.142   5.566  11.976  0.0406 -0.0980  0.7133
10898SOL    HW134135   5.104   5.553  12.063 -0.1971  0.3827  0.6819
10898SOL    HW234136   5.189   5.485  11.958  0.0773 -0.2061  1.2877
10899SOL     OW34137   6.174   4.791   9.272  0.2658 -0.3017  0.3278
10899SOL    HW134138   6.188   4.880   9.239 -1.1956 -0.2197 -0.1801
10899SOL    HW234139   6.099   4.800   9.331 -0.3622 -1.3030 -0.2915
10900SOL     OW34140   4.852   5.357   0.357  0.2394 -0.7253  0.1476
10900SOL    HW134141   4.888   5.377   0.444  1.1592 -1.5490 -0.0277
10900SOL    HW234142   4.761   5.387   0.361  0.5046  0.0123  1.1137
10901SOL     OW34143   5.290   7.034   9.488  0.0760 -0.0887  0.1815
10901SOL    HW134144   5.338   7.057   9.409 -1.8529  2.9502 -0.2769
10901SOL    HW234145   5.281   6.939   9.485  1.5618 -0.2217 -2.2970
10902SOL     OW34146   1.716   0.385   6.086 -0.9282  0.1920 -0.3832
10902SOL    HW134147   1.643   0.374   6.147 -2.2307  0.7872 -1.7801
10902SOL    HW234148   1.716   0.304   6.034  0.8046 -0.7531  0.9798
10903SOL     OW34149   4.825   4.283  12.378  0.3267  0.4021  0.4813
10903SOL    HW134150   4.917   4.283  12.350  0.8905 -0.4605  2.1973
10903SOL    HW234151   4.817   4.362  12.432  0.3027  0.0277  1.0320
10904SOL     OW34152   4.419   6.230  10.790  0.1692  0.8078  0.8334
10904SOL    HW134153   4.347   6.293  10.781  0.1579  0.6184 -0.6354
10904SOL    HW234154   4.478   6.251  10.718  0.0514 -0.9747  0.1708
10905SOL     OW34155   4.990   7.099   3.396  0.0411 -0.1473  0.2103
10905SOL    HW134156   4.994   7.006   3.418 -0.6632  0.0327  1.1594
10905SOL    HW234157   5.074   7.117   3.354 -0.2308 -1.4354 -0.9690
10906SOL     OW34158   6.592   4.549   1.613  0.0185 -0.3483  0.2961
10906SOL    HW134159   6.684   4.572   1.596 -0.1312 -0.3956 -0.5954
10906SOL    HW234160   6.582   4.462   1.576 -0.4981 -0.1648 -0.0067
10907SOL     OW34161   5.466   1.766   0.357  0.3886  0.2734 -0.1542
10907SOL    HW134162   5.479   1.742   0.449  1.3514 -1.6136 -0.7450
10907SOL    HW234163   5.371   1.768   0.347  0.2656 -1.3610  0.4494
10908SOL     OW34164   3.338   6.030   5.844 -0.4409 -0.0263  0.0724
10908SOL    HW134165   3.254   6.078   5.847 -0.2869  0.3063 -0.6434
10908SOL    HW234166   3.333   5.979   5.763 -0.6221 -1.2909  0.8462
10909SOL     OW34167   0.271   1.752   1.152  0.0144  0.4808  0.3209
10909SOL    HW134168   0.305   1.781   1.236 -0.3928  0.1182  0.6132
10909SOL    HW234169   0.278   1.828   1.095  1.1871  0.4495  0.4106
10910SOL     OW34170   4.465   7.346   6.976  0.5016 -0.5846 -0.2296
10910SOL    HW134171   4.398   7.414   6.965  0.8163 -0.1486  0.5179
10910SOL    HW234172   4.547   7.390   6.956  0.7335 -0.6790  0.4919
10911SOL     OW34173   4.381   2.311   2.073  0.1946 -0.1576 -0.4501
10911SOL    HW134174   4.339   2.231   2.107  0.8927  0.1579  1.2593
10911SOL    HW234175   4.429   2.346   2.148  1.5486  0.7889 -1.7155
10912SOL     OW34176   0.005   3.310   5.103  0.5272 -0.5719  0.3075
10912SOL    HW134177  -0.046   3.354   5.171 -0.9450  0.0768 -1.1579
10912SOL    HW234178  -0.044   3.230   5.085  1.2996 -1.0949  0.4878
10913SOL     OW34179   1.511   1.767   2.656  0.1159 -0.1561 -0.7264
10913SOL    HW134180   1.537   1.712   2.730  2.6222 -1.1481 -2.2048
10913SOL    HW234181   1.415   1.765   2.658  0.0499  0.1314  2.6094
10914SOL     OW34182   1.694   2.865   7.846  0.6036 -0.1022  0.5780
10914SOL    HW134183   1.610   2.826   7.823  0.5230  0.9014 -0.9783
10914SOL    HW234184   1.673   2.928   7.915 -0.0227  0.4700 -0.1200
10915SOL     OW34185   6.963   2.913   7.211  0.0102 -0.3483 -0.0261
10915SOL    HW134186   6.936   2.821   7.215 -0.7369 -0.1771 -0.7746
10915SOL    HW234187   6.941   2.948   7.297  2.0257 -1.2996  0.9410
10916SOL     OW34188   5.585   4.549   5.936 -0.5567  0.2692 -0.2304
10916SOL    HW134189   5.645   4.502   5.878 -1.6578 -2.9982  1.0612
10916SOL    HW234190   5.631   4.630   5.958  1.1122  0.2934 -3.2806
10917SOL     OW34191   5.195   0.222   0.556 -0.3621  0.0954 -0.2958
10917SOL    HW134192   5.209   0.215   0.651  0.4075 -1.1806 -0.4758
10917SOL    HW234193   5.218   0.312   0.535  1.0507 -0.0477  0.4971
10918SOL     OW34194   3.856   5.936   0.791  0.1075  0.4714  0.4088
10918SOL    HW134195   3.888   5.848   0.810  0.6151  0.4885 -0.3030
10918SOL    HW234196   3.777   5.922   0.739 -0.2904  0.4353  1.0192
10919SOL     OW34197   5.306   3.492   4.446 -0.1183 -0.1044 -0.2461
10919SOL    HW134198   5.301   3.457   4.535  0.5575  2.0621  0.7143
10919SOL    HW234199   5.400   3.498   4.428 -0.2497 -0.5722 -1.1437
10920SOL     OW34200   0.514   5.450   8.767 -0.1225  0.2810  0.4652
10920SOL    HW134201   0.529   5.445   8.673 -0.5469 -0.1703  0.4187
10920SOL    HW234202   0.422   5.476   8.776 -0.1452  0.1072  0.7525
10921SOL     OW34203   5.410   4.365   6.363  0.5182 -0.1309  0.5912
10921SOL    HW134204   5.464   4.356   6.285 -1.6980 -0.2754 -1.0315
10921SOL    HW234205   5.422   4.283   6.410  2.6467  0.3508  0.9910
10922SOL     OW34206   3.241   2.352   9.360  0.4504 -0.2782 -0.2673
10922SOL    HW134207   3.221   2.431   9.310  3.1405  0.2288 -0.6864
10922SOL    HW234208   3.224   2.280   9.299  3.4015  0.3111 -1.9754
10923SOL     OW34209   2.293   6.526   8.403  0.1901  0.0320 -0.3626
10923SOL    HW134210   2.363   6.478   8.447 -0.8783 -1.6556 -0.3910
10923SOL    HW234211   2.283   6.482   8.319 -0.8127  0.2955 -0.3994
10924SOL     OW34212   3.669   7.633   1.036 -0.2307  0.2697  0.2172
10924SOL    HW134213   3.709   7.720   1.039  0.9431 -0.2638  1.2539
10924SOL    HW234214   3.668   7.604   1.128  1.3089 -1.6253 -0.3005
10925SOL     OW34215   6.790   3.787   5.676 -0.4132 -0.6502 -0.1476
10925SOL    HW134216   6.867   3.738   5.707 -0.6757 -1.3466 -0.5678
10925SOL    HW234217   6.785   3.863   5.734 -0.0645 -1.1865  0.6026
10926SOL     OW34218   2.897   7.366   6.222  0.3158 -0.1302 -0.2104
10926SOL    HW134219   2.808   7.332   6.228  0.2957 -0.0519 -0.0477
10926SOL    HW234220   2.952   7.288   6.215  0.2896 -0.2133  0.3976
10927SOL     OW34221   7.755   0.602   1.318  0.1790  0.0983  1.0799
10927SOL    HW134222   7.809   0.523   1.314 -1.1758 -0.8183 -0.5108
10927SOL    HW234223   7.754   0.634   1.227 -1.1621  0.6187  1.2644
10928SOL     OW34224   3.644   7.452  11.497  0.0001  0.0724 -0.1351
10928SOL    HW134225   3.585   7.379  11.478  0.0862 -0.0311 -0.0139
10928SOL    HW234226   3.603   7.528  11.456 -0.8240  0.2311  0.9433
10929SOL     OW34227   4.848   7.434   4.877 -0.5202 -0.1289  0.1065
10929SOL    HW134228   4.846   7.499   4.947 -1.1052  1.9486 -1.7589
10929SOL    HW234229   4.920   7.461   4.820 -0.9944 -0.8989 -0.9028
10930SOL     OW34230   6.526   6.173   1.662  0.4444 -0.1180  0.2002
10930SOL    HW134231   6.441   6.201   1.628  0.0837 -1.2306  0.1351
10930SOL    HW234232   6.573   6.139   1.586  1.0765  0.7769  0.1820
10931SOL     OW34233   4.132   6.811   6.244  0.0559  0.4241 -0.2641
10931SOL    HW134234   4.227   6.806   6.248  0.0621 -2.3358 -1.5639
10931SOL    HW234235   4.103   6.797   6.335  0.8895 -0.9217 -0.1834
10932SOL     OW34236   6.490   6.466   5.777 -0.1833 -0.4325 -0.1575
10932SOL    HW134237   6.441   6.391   5.811 -1.6530  0.8207  0.5938
10932SOL    HW234238   6.521   6.512   5.855  1.2133 -0.5306 -0.6181
10933SOL     OW34239   2.337   2.218   7.838 -0.1836  0.4115 -0.2661
10933SOL    HW134240   2.420   2.187   7.802 -1.2542 -1.1989 -1.5292
10933SOL    HW234241   2.304   2.280   7.774  0.1620  1.2724  0.3765
10934SOL     OW34242   2.865   3.993   1.287 -0.0159 -0.8174 -0.0037
10934SOL    HW134243   2.871   3.996   1.383 -0.1746 -1.3680  0.0267
10934SOL    HW234244   2.928   4.059   1.257 -0.9036  0.2826  0.4923
10935SOL     OW34245   7.941   6.552   7.660  0.0956  0.0175 -0.3466
10935SOL    HW134246   7.952   6.645   7.682  1.6069 -0.6632  2.2525
10935SOL    HW234247   7.864   6.525   7.710  0.5875 -0.4534  0.1670
10936SOL     OW34248   3.301   5.402   0.584  0.9755 -0.4605 -0.0207
10936SOL    HW134249   3.249   5.404   0.504  0.3081 -0.2639  0.4057
10936SOL    HW234250   3.240   5.374   0.652  1.9552 -2.4166  0.1325
10937SOL     OW34251   4.350   3.084   3.708 -0.2749  0.5246  0.2103
10937SOL    HW134252   4.409   3.056   3.638 -2.3661 -2.3720 -0.5881
10937SOL    HW234253   4.381   3.038   3.786 -0.1397  0.8433  0.3493
10938SOL     OW34254   4.759   1.574   8.241  0.5635 -0.0448 -0.2263
10938SOL    HW134255   4.675   1.614   8.217 -0.8489 -1.9225  1.2551
10938SOL    HW234256   4.794   1.541   8.158  0.4970  1.8748 -1.0533
10939SOL     OW34257   6.906   5.649   0.271  0.0589 -0.0300  0.0678
10939SOL    HW134258   6.963   5.581   0.307  0.7558 -0.0130 -0.9437
10939SOL    HW234259   6.823   5.638   0.316 -0.4248 -2.7080 -1.2816
10940SOL     OW34260   6.356   2.113   9.282  0.3255 -0.4188 -0.5818
10940SOL    HW134261   6.270   2.153   9.272 -0.5728 -2.2347 -0.5843
10940SOL    HW234262   6.418   2.185   9.272 -1.1872  0.9287 -0.5890
10941SOL     OW34263   6.119   1.093   9.459  0.3383  0.2753 -0.6706
10941SOL    HW134264   6.028   1.117   9.448  0.6133  1.5705 -0.2288
10941SOL    HW234265   6.169   1.168   9.428  1.2329  0.0420  0.1231
10942SOL     OW34266   5.085   2.090   0.244  0.0590 -0.3752 -0.6011
10942SOL    HW134267   5.139   2.166   0.221 -1.5294  0.8581 -0.4958
10942SOL    HW234268   5.071   2.045   0.161 -0.5391  0.5606 -1.0364
10943SOL     OW34269   7.292   2.066   4.482 -1.0534 -0.0933 -0.4546
10943SOL    HW134270   7.295   2.119   4.402  2.4639 -1.2601 -1.2705
10943SOL    HW234271   7.251   1.984   4.455 -0.4801 -0.2345 -0.9120
10944SOL     OW34272   2.314   3.039   2.170  0.1687 -0.2680  0.0580
10944SOL    HW134273   2.243   3.063   2.230  0.5028 -1.5198  0.9763
10944SOL    HW234274   2.307   2.944   2.161  1.1266 -0.2888 -0.6248
10945SOL     OW34275   0.626   1.278   8.791 -0.0060  0.2287 -0.1299
10945SOL    HW134276   0.683   1.290   8.866 -0.3734  0.4476  0.1165
10945SOL    HW234277   0.653   1.346   8.729 -0.6364  0.9515  0.3786
10946SOL     OW34278   7.517   2.172   9.079 -0.4841  0.2618  0.0847
10946SOL    HW134279   7.424   2.177   9.060 -0.4993  0.9856  0.3223
10946SOL    HW234280   7.549   2.262   9.069  0.0043  0.1932  0.8952
10947SOL     OW34281   0.436   3.578   4.303 -0.5312 -0.4871  0.6393
10947SOL    HW134282   0.358   3.529   4.278 -1.7588  1.7738 -0.2537
10947SOL    HW234283   0.495   3.568   4.228 -1.7145  1.1893 -0.5965
10948SOL     OW34284   2.717   5.936   7.246 -0.5163  0.3284  0.2064
10948SOL    HW134285   2.736   6.005   7.310 -0.5072 -1.1680  1.8755
10948SOL    HW234286   2.781   5.868   7.265 -0.0669  0.1057 -1.8811
10949SOL     OW34287   4.974   5.548  10.862  0.4130 -0.0310  0.0451
10949SOL    HW134288   5.051   5.604  10.847 -0.3301  0.7933 -0.8253
10949SOL    HW234289   4.959   5.506  10.777 -0.3100  0.0861  0.1116
10950SOL     OW34290   6.597   1.128   1.711 -0.1996 -0.0598 -0.1266
10950SOL    HW134291   6.507   1.159   1.702 -0.2293  0.4708  1.5704
10950SOL    HW234292   6.602   1.095   1.801  1.4715  0.5501  0.0406
10951SOL     OW34293   3.710   5.885   4.726 -0.5694 -0.0933 -0.0563
10951SOL    HW134294   3.799   5.851   4.733  0.2501  2.0550  1.0441
10951SOL    HW234295   3.698   5.901   4.632  0.2339 -0.3329 -0.2101
10952SOL     OW34296   3.869   0.170  11.730 -0.0163  0.1833 -0.4270
10952SOL    HW134297   3.962   0.151  11.721 -0.0577 -0.5427  0.5242
10952SOL    HW234298   3.846   0.217  11.650  1.0017 -0.2656 -0.9950
10953SOL     OW34299   3.384   6.955   4.993 -0.0519  0.7612 -0.1014
10953SOL    HW134300   3.414   6.931   5.081  0.3578 -0.9054 -0.6764
10953SOL    HW234301   3.289   6.962   5.002 -0.0139  0.6093  0.4763
10954SOL     OW34302   6.970   7.603   5.432  1.3224 -0.2354 -0.1753
10954SOL    HW134303   6.975   7.511   5.458  2.5987 -0.2066 -0.2598
10954SOL    HW234304   6.895   7.607   5.373  0.0113 -0.8172  1.3919
10955SOL     OW34305   2.030   3.416   7.638 -0.9624  0.6411 -1.1019
10955SOL    HW134306   2.034   3.495   7.692 -2.3122 -0.3345  0.5176
10955SOL    HW234307   2.115   3.413   7.593  0.9921  0.6512  2.2597
10956SOL     OW34308   7.903   6.206   0.016  0.0015  0.6938  0.0860
10956SOL    HW134309   7.865   6.231   0.100 -0.5696  1.3004 -0.3480
10956SOL    HW234310   7.973   6.270   0.002  0.9757 -0.2008  0.7104
10957SOL     OW34311   7.885   4.396   5.670  0.3387  0.2068  0.6861
10957SOL    HW134312   7.842   4.469   5.626  0.5224 -0.1071 -0.0232
10957SOL    HW234313   7.977   4.402   5.643  0.0121 -1.4085 -0.9610
10958SOL     OW34314   5.185   0.501   6.099  0.1459 -0.1868  0.3140
10958SOL    HW134315   5.112   0.562   6.086  1.0743  0.7909 -0.5200
10958SOL    HW234316   5.260   0.558   6.116  1.6344 -0.8309 -3.1722
10959SOL     OW34317   7.911   0.012   3.593 -0.0558 -0.0536  0.0105
10959SOL    HW134318   7.847  -0.056   3.617  0.9033 -1.3806 -1.0521
10959SOL    HW234319   7.946  -0.017   3.509 -0.1249  2.1642 -0.8381
10960SOL     OW34320   4.079   5.116  11.009 -0.5475 -0.4290  0.2936
10960SOL    HW134321   3.993   5.092  11.043 -0.7307 -1.1124 -0.6107
10960SOL    HW234322   4.062   5.197  10.959 -0.3015  0.4993  1.6734
10961SOL     OW34323   7.728   1.741  11.352 -0.5555 -0.1510 -0.5375
10961SOL    HW134324   7.659   1.678  11.329  0.0833 -1.3209  0.6361
10961SOL    HW234325   7.803   1.714  11.299 -0.6335  0.3972 -0.9373
10962SOL     OW34326   6.249   3.071   8.061 -0.0292  0.1759  0.0456
10962SOL    HW134327   6.266   3.142   8.122  0.7189  0.1755 -0.1561
10962SOL    HW234328   6.328   3.018   8.062 -0.0426  0.1114 -0.8331
10963SOL     OW34329   4.742   6.615   4.125 -0.3280 -0.6906 -0.3890
10963SOL    HW134330   4.792   6.578   4.053  1.4440  2.3819 -0.8958
10963SOL    HW234331   4.793   6.595   4.203  0.2675  0.0798 -0.5775
10964SOL     OW34332   3.639   7.542   0.585 -0.3478 -0.0337  0.2104
10964SOL    HW134333   3.595   7.486   0.522 -0.1902 -0.9787  0.9084
10964SOL    HW234334   3.729   7.551   0.552 -0.5044  0.2039 -0.1503
10965SOL     OW34335   6.679   6.105   6.649  0.6492 -0.1210 -0.9169
10965SOL    HW134336   6.635   6.038   6.702  0.2281  0.6305 -0.3100
10965SOL    HW234337   6.770   6.105   6.681  0.4889  0.0597 -0.4554
10966SOL     OW34338   7.859   1.466   7.604 -0.0456  0.5671  0.1088
10966SOL    HW134339   7.893   1.543   7.651  2.8049 -0.5892  0.1500
10966SOL    HW234340   7.906   1.392   7.643 -0.3085 -0.8287 -2.0801
10967SOL     OW34341   1.802   5.082   9.453  0.3419  1.0372  0.6240
10967SOL    HW134342   1.827   5.107   9.364  0.1745 -1.0719 -0.0883
10967SOL    HW234343   1.835   4.992   9.463 -2.1176  0.1309  1.6049
10968SOL     OW34344   0.924   7.705   9.790 -0.1051  0.0002 -0.1153
10968SOL    HW134345   1.001   7.648   9.790 -0.5902 -0.6637  0.5437
10968SOL    HW234346   0.923   7.744   9.877 -1.4844 -1.3277  0.4884
10969SOL     OW34347   1.965   5.495  10.637  0.6291 -0.0577 -0.0221
10969SOL    HW134348   1.932   5.584  10.622 -0.5295 -0.3654  0.5810
10969SOL    HW234349   1.990   5.465  10.549 -2.0093 -0.2706 -0.7957
10970SOL     OW34350   5.082   1.119   9.835  0.3555 -0.1238  0.4407
10970SOL    HW134351   5.060   1.166   9.755  0.8752 -0.7820 -0.1058
10970SOL    HW234352   5.151   1.171   9.876  0.7258 -0.2620 -0.0095
10971SOL     OW34353   4.315   7.448   5.480  0.7689 -0.0652 -0.1810
10971SOL    HW134354   4.325   7.465   5.386  0.8285 -0.5983 -0.2753
10971SOL    HW234355   4.319   7.535   5.521 -0.1060  0.2439 -0.7398
10972SOL     OW34356   7.943   2.152   9.685  0.4242  0.5753  0.2000
10972SOL    HW134357   8.038   2.160   9.690  0.4746 -0.2721  0.8255
10972SOL    HW234358   7.924   2.152   9.591  0.9967  1.1478  0.0756
10973SOL     OW34359   5.239   5.043   1.383 -0.4735  0.3709 -0.4092
10973SOL    HW134360   5.222   4.978   1.315 -3.6489  1.4695 -0.8445
10973SOL    HW234361   5.235   5.127   1.337  0.6789  1.0278  0.6173
10974SOL     OW34362   4.506   1.942   2.931  0.7274 -0.0669  0.2382
10974SOL    HW134363   4.472   1.852   2.928  1.1506 -0.2481  0.6825
10974SOL    HW234364   4.492   1.969   3.022  1.2479  0.0642  0.2805
10975SOL     OW34365   0.620   7.249  11.860  0.3671 -0.4683  0.3210
10975SOL    HW134366   0.697   7.266  11.914 -0.7009 -0.1563  1.8169
10975SOL    HW234367   0.572   7.181  11.906 -2.1650  1.9541  1.5762
10976SOL     OW34368   0.251   2.716  11.365 -0.1364  0.2156 -0.2313
10976SOL    HW134369   0.326   2.720  11.424 -0.6379 -1.2596  0.5718
10976SOL    HW234370   0.278   2.658  11.294 -0.6006 -0.6015  0.2385
10977SOL     OW34371   6.280   3.840   2.590 -0.0610  0.3727 -0.0012
10977SOL    HW134372   6.276   3.789   2.510 -2.5954 -0.6991  0.7017
10977SOL    HW234373   6.264   3.930   2.562 -1.2073 -0.0284 -0.6849
10978SOL     OW34374   5.316   5.081   2.946 -0.2998  0.5567 -0.4275
10978SOL    HW134375   5.334   4.998   2.903 -3.6682 -0.7209  0.3352
10978SOL    HW234376   5.388   5.139   2.918  0.8365 -1.8473 -2.9289
10979SOL     OW34377   4.833   5.420   0.043 -0.0772  0.3380 -0.6479
10979SOL    HW134378   4.743   5.431   0.011 -0.4699  0.9285  0.6274
10979SOL    HW234379   4.839   5.478   0.118  1.2900  0.0692 -0.5365
10980SOL     OW34380   1.161   2.175   5.857 -0.7335  0.0892  0.5481
10980SOL    HW134381   1.084   2.164   5.801 -0.3513 -0.8435  0.1801
10980SOL    HW234382   1.230   2.124   5.813 -0.1158  0.2903  1.2676
10981SOL     OW34383   3.795   7.477   2.470 -0.1898 -0.0506  0.2352
10981SOL    HW134384   3.839   7.522   2.542  0.7298 -0.1612 -0.2420
10981SOL    HW234385   3.807   7.535   2.395  0.3453 -0.7209 -0.2103
10982SOL     OW34386   7.749   4.857   7.349 -0.3955 -0.2214 -0.1318
10982SOL    HW134387   7.681   4.789   7.347 -0.9321  0.2652  0.7227
10982SOL    HW234388   7.723   4.913   7.422  1.2658 -0.3576  0.5944
10983SOL     OW34389   0.297   4.601   9.777 -0.4661 -0.3895  0.0193
10983SOL    HW134390   0.358   4.674   9.767 -2.0508  0.9944 -0.1017
10983SOL    HW234391   0.284   4.593   9.872  0.4703 -1.2057  0.0896
10984SOL     OW34392   4.111   3.748   5.124 -0.1660 -0.1407 -0.4147
10984SOL    HW134393   4.072   3.713   5.045  0.3585  1.6276 -1.5225
10984SOL    HW234394   4.205   3.749   5.106 -0.2106  2.7166 -0.9029
10985SOL     OW34395   0.391   6.377   8.171 -0.6280 -0.2864 -0.2521
10985SOL    HW134396   0.432   6.425   8.099 -4.0368  1.4356 -1.2470
10985SOL    HW234397   0.337   6.310   8.129 -0.6989 -0.9467  0.8439
10986SOL     OW34398   1.588   6.117   8.288  0.1911 -0.1216  0.0424
10986SOL    HW134399   1.603   6.212   8.288  0.0646 -0.0867 -0.8708
10986SOL    HW234400   1.627   6.088   8.205 -1.2085 -0.6237 -0.4592
10987SOL     OW34401   4.302   2.128  10.079  0.3833  0.3501  0.6388
10987SOL    HW134402   4.352   2.145  10.159  0.5377  1.9190  0.2379
10987SOL    HW234403   4.368   2.120  10.010  0.1684  1.9035  0.2000
10988SOL     OW34404   6.269   2.887   2.240  0.4499 -0.4242  0.4116
10988SOL    HW134405   6.269   2.897   2.144  0.7291  3.3604  0.6808
10988SOL    HW234406   6.332   2.816   2.256 -0.0478 -1.5890 -2.1745
10989SOL     OW34407   0.043   0.831   2.507  0.0720  0.0447  0.4150
10989SOL    HW134408   0.103   0.899   2.475  1.9980 -1.4275  0.6663
10989SOL    HW234409   0.060   0.828   2.601 -0.6983 -0.1369  0.5513
10990SOL     OW34410   3.306   6.401  11.189 -0.2166 -0.3376 -0.0556
10990SOL    HW134411   3.258   6.398  11.272 -0.2642  0.3191 -0.0570
10990SOL    HW234412   3.287   6.316  11.148 -1.0278 -0.2603  0.1370
10991SOL     OW34413   3.521   2.191   2.200 -0.3621  0.0022 -0.5326
10991SOL    HW134414   3.433   2.229   2.210 -0.8147 -1.2172  0.3654
10991SOL    HW234415   3.544   2.208   2.109 -0.7393  1.9637 -0.3061
10992SOL     OW34416   3.681   1.956   2.914 -0.6385  0.4131 -0.0984
10992SOL    HW134417   3.670   2.046   2.883 -1.1245  0.7327  0.9475
10992SOL    HW234418   3.596   1.932   2.951  0.4109  0.8489  2.9126
10993SOL     OW34419   2.762   5.192   8.641  0.5676 -0.4606  0.1685
10993SOL    HW134420   2.756   5.113   8.586  0.4664 -0.9966  0.9254
10993SOL    HW234421   2.803   5.161   8.722  1.2557  0.4378  0.1758
10994SOL     OW34422   4.848   6.683  10.502  0.2050 -0.4906 -0.2083
10994SOL    HW134423   4.855   6.680  10.406 -0.8197 -0.7627 -0.2941
10994SOL    HW234424   4.881   6.769  10.526  1.7804 -0.9277 -0.6629
10995SOL     OW34425   6.490   4.043  12.403  0.3117  0.2339  0.3093
10995SOL    HW134426   6.410   4.003  12.370 -0.7466  1.0068  1.8254
10995SOL    HW234427   6.557   3.976  12.390 -0.2353  0.1103 -2.3177
10996SOL     OW34428   4.840   1.456   2.100 -0.4043 -0.7347  0.1611
10996SOL    HW134429   4.772   1.517   2.125  1.7130  1.5646  0.7455
10996SOL    HW234430   4.794   1.382   2.061 -3.1311  1.0811 -0.2960
10997SOL     OW34431   6.765   2.422   7.534 -0.0798  0.1679  0.7182
10997SOL    HW134432   6.847   2.379   7.558  1.0493  2.5570  1.3770
10997SOL    HW234433   6.698   2.370   7.579  0.8149 -2.6801 -0.9586
10998SOL     OW34434   6.541   3.449   4.311  0.4453  0.0851 -0.3435
10998SOL    HW134435   6.634   3.434   4.295  0.6834 -1.3858  1.9844
10998SOL    HW234436   6.538   3.514   4.381 -0.3153  0.7647 -0.9906
10999SOL     OW34437   0.807   0.258   8.830 -0.5900  0.0394  0.5110
10999SOL    HW134438   0.802   0.297   8.917  0.4172  0.4568  0.3934
10999SOL    HW234439   0.779   0.327   8.771  2.0884  0.9707  0.2208
11000SOL     OW34440   0.586   1.980   0.900  0.5269 -0.0499  0.4092
11000SOL    HW134441   0.658   2.021   0.852  1.2531 -0.2617  1.2852
11000SOL    HW234442   0.579   1.892   0.862  0.0333  0.3216 -0.3796
11001SOL     OW34443   5.918   5.457  10.820 -0.0184  0.4120  0.4095
11001SOL    HW134444   5.843   5.514  10.802  0.1059  0.0903 -1.3204
11001SOL    HW234445   5.912   5.438  10.914  0.4873  4.0056  1.2976
11002SOL     OW34446   5.149   3.372   6.535 -0.2665  0.4228  0.1429
11002SOL    HW134447   5.199   3.291   6.527 -1.9374 -0.6173 -0.4901
11002SOL    HW234448   5.192   3.433   6.476 -0.1794 -0.6749 -0.9768
11003SOL     OW34449   2.430   4.514  10.393  0.0241  0.3974 -0.3403
11003SOL    HW134450   2.484   4.449  10.349 -1.6123 -1.7155  0.6029
11003SOL    HW234451   2.348   4.514  10.344 -0.6028  0.4738  0.6748
11004SOL     OW34452   5.879   6.628   1.525 -0.5347  0.1104  0.0843
11004SOL    HW134453   5.862   6.716   1.492 -1.2322  0.0024  0.1377
11004SOL    HW234454   5.969   6.610   1.499 -1.0904 -0.0215 -1.8693
11005SOL     OW34455   2.992   4.485   9.828  0.3747  0.0456 -0.1875
11005SOL    HW134456   3.081   4.463   9.855  0.5952  0.3611 -0.6348
11005SOL    HW234457   2.944   4.403   9.835 -0.2467  0.5312  3.5755
11006SOL     OW34458   1.151   5.985   0.559  0.0204 -0.0201  0.2164
11006SOL    HW134459   1.168   5.899   0.520 -2.8889 -0.6811  0.2021
11006SOL    HW234460   1.188   5.979   0.647  0.5507 -0.9709 -0.0495
11007SOL     OW34461   5.914   2.453   8.546  0.1904  0.3168  0.0211
11007SOL    HW134462   5.938   2.387   8.481  0.0911  0.3086 -0.0064
11007SOL    HW234463   5.955   2.534   8.513 -0.0960  0.3752 -0.2028
11008SOL     OW34464   0.839   4.398   6.334 -0.4813  0.1771  0.1525
11008SOL    HW134465   0.925   4.426   6.363 -1.0023  2.1651 -0.0825
11008SOL    HW234466   0.790   4.382   6.414 -0.3246  0.4499  0.3012
11009SOL     OW34467   6.919   3.953   7.213 -0.0155  0.4162  0.4965
11009SOL    HW134468   7.010   3.973   7.191 -0.0848  2.3350  1.7114
11009SOL    HW234469   6.900   4.008   7.290 -1.3797 -1.9332  1.9773
11010SOL     OW34470   4.189   6.659   4.388 -0.3421 -0.5121  0.6289
11010SOL    HW134471   4.207   6.565   4.389  0.3052 -0.3945  1.1127
11010SOL    HW234472   4.266   6.698   4.346 -0.7685 -0.2237  0.1017
11011SOL     OW34473   0.679   0.998  11.928 -0.0819 -0.2549 -0.5361
11011SOL    HW134474   0.652   0.945  11.853 -1.4441  0.4103 -0.5512
11011SOL    HW234475   0.693   0.935  11.998 -2.0832 -0.6565 -0.4369
11012SOL     OW34476   1.799   0.086   7.932  0.1187  0.1149 -0.1013
11012SOL    HW134477   1.789   0.181   7.937 -0.0313  0.1152 -0.3989
11012SOL    HW234478   1.850   0.071   7.853 -0.8978 -0.1170 -0.7421
11013SOL     OW34479   6.805   5.355   2.647  0.3470  0.0579 -0.6244
11013SOL    HW134480   6.855   5.276   2.669 -0.6421 -0.1415  1.1013
11013SOL    HW234481   6.730   5.322   2.598  0.4561  0.0443 -0.7830
11014SOL     OW34482   0.198   6.224   6.339  0.0943  0.3659 -0.0349
11014SOL    HW134483   0.245   6.142   6.353 -0.0645  0.5717  1.9755
11014SOL    HW234484   0.259   6.291   6.368 -0.5450  0.8101  0.2978
11015SOL     OW34485   1.331   5.536   3.600 -0.1547 -0.2515 -0.2250
11015SOL    HW134486   1.270   5.517   3.671  0.5304 -0.5873  0.2726
11015SOL    HW234487   1.364   5.451   3.572 -1.4038 -0.2474 -1.8433
11016SOL     OW34488   3.173   2.676  10.889  0.2722  0.1210  0.1840
11016SOL    HW134489   3.219   2.599  10.856 -0.4141 -0.2347  0.0563
11016SOL    HW234490   3.082   2.650  10.895 -0.2292  1.3576 -1.2439
11017SOL     OW34491   7.784   5.324   9.104  0.7845  0.1273 -0.4659
11017SOL    HW134492   7.759   5.320   9.012 -0.1641 -0.9897 -0.1908
11017SOL    HW234493   7.879   5.331   9.103  0.9270 -1.3711 -1.5476
11018SOL     OW34494   1.533   1.285   2.594 -0.0137  0.3282 -0.3786
11018SOL    HW134495   1.539   1.310   2.502  1.0664 -1.6807 -0.9401
11018SOL    HW234496   1.441   1.297   2.617 -0.9099 -1.6090 -2.5482
11019SOL     OW34497   4.612   7.760   4.031  0.3728  0.0608  0.2997
11019SOL    HW134498   4.614   7.823   4.103 -0.3231 -0.1848  0.5450
11019SOL    HW234499   4.543   7.794   3.973  0.7848  0.1421 -0.1455
11020SOL     OW34500   6.045   4.227   4.510 -0.2037 -0.6073 -0.4840
11020SOL    HW134501   6.003   4.157   4.561 -0.8687 -0.6763 -1.1221
11020SOL    HW234502   5.974   4.289   4.491  0.3950  0.3082  0.1582
11021SOL     OW34503   4.751   2.064   9.905 -0.1679 -0.1580  0.7333
11021SOL    HW134504   4.753   2.160   9.902 -0.1117 -0.1205  1.7871
11021SOL    HW234505   4.842   2.038   9.899 -0.2362 -0.2007 -0.5164
11022SOL     OW34506   1.863   1.839  11.107 -0.1755 -0.0454  0.7333
11022SOL    HW134507   1.951   1.843  11.146 -0.0042 -0.3366  0.3862
11022SOL    HW234508   1.809   1.895  11.163  0.0964 -0.3474  1.3049
11023SOL     OW34509   2.241   3.079   6.328 -0.2978 -0.4987  0.7235
11023SOL    HW134510   2.209   3.132   6.401  1.2817 -0.7278  1.6369
11023SOL    HW234511   2.320   3.124   6.298 -1.0721 -0.2470 -1.0864
11024SOL     OW34512   6.885   3.728   6.610  0.3116  0.1895 -0.4560
11024SOL    HW134513   6.891   3.808   6.663  0.7982  0.2909 -0.6679
11024SOL    HW234514   6.950   3.739   6.541  0.2149 -0.2868 -0.6276
11025SOL     OW34515   1.599   0.797   7.222 -0.0787 -0.0149 -0.5696
11025SOL    HW134516   1.596   0.869   7.158  1.4784 -0.2631 -0.9684
11025SOL    HW234517   1.604   0.840   7.307 -0.1770  0.3391 -0.7418
11026SOL     OW34518   2.195   2.090   6.181 -0.2470  0.4267  0.1270
11026SOL    HW134519   2.185   2.182   6.206 -0.6263 -0.0478  1.8456
11026SOL    HW234520   2.289   2.075   6.183 -0.1628  0.8383 -0.4422
11027SOL     OW34521   3.671   2.322   5.095 -0.3350  0.1698 -0.0525
11027SOL    HW134522   3.661   2.236   5.053 -0.9412  0.1677  0.0998
11027SOL    HW234523   3.728   2.305   5.170 -0.6691 -0.1466  0.1298
11028SOL     OW34524   6.136   4.636   0.831  0.2833  0.4346 -0.1568
11028SOL    HW134525   6.226   4.616   0.856  0.4001  1.5111  0.3421
11028SOL    HW234526   6.145   4.693   0.755 -0.0004 -0.0731 -0.5763
11029SOL     OW34527   5.121   3.513   4.250  0.1360 -0.8181  0.1072
11029SOL    HW134528   5.184   3.515   4.322 -0.2422 -1.6286  0.4754
11029SOL    HW234529   5.093   3.421   4.245 -0.5095 -0.5999 -0.4846
11030SOL     OW34530   1.809   0.075   6.578 -0.0610  0.2044  0.2500
11030SOL    HW134531   1.891   0.046   6.618 -0.3166  1.3126  1.6885
11030SOL    HW234532   1.833   0.152   6.526 -0.1236  0.2839  0.3382
11031SOL     OW34533   5.871   6.539  10.123 -0.1686  0.2611 -0.1637
11031SOL    HW134534   5.832   6.626  10.115  0.2464  0.2831 -2.8756
11031SOL    HW234535   5.920   6.527  10.042  2.3283 -1.3204  1.4461
11032SOL     OW34536   1.054   3.129   1.292  0.1654 -0.0109 -0.0630
11032SOL    HW134537   1.143   3.108   1.262  0.7650  2.5238 -0.3186
11032SOL    HW234538   1.005   3.146   1.212  0.5370  2.3131  0.1375
11033SOL     OW34539   1.985   0.507  11.614 -0.4264 -0.1709  0.5452
11033SOL    HW134540   2.036   0.449  11.670  1.2177  2.0706  1.5153
11033SOL    HW234541   1.895   0.473  11.619  0.0836 -1.3610  2.7195
11034SOL     OW34542   1.447   6.641  11.123  0.0614 -0.0470  0.2195
11034SOL    HW134543   1.412   6.684  11.044 -0.9121  0.3605  0.8562
11034SOL    HW234544   1.508   6.576  11.089 -1.7522 -1.2085 -1.0038
11035SOL     OW34545   5.676   6.905   3.392 -0.1426 -0.4068 -0.4962
11035SOL    HW134546   5.640   6.816   3.397  0.4342 -0.5920  1.4434
11035SOL    HW234547   5.629   6.946   3.319 -0.9638 -2.0601 -0.9545
11036SOL     OW34548   0.264   6.107   3.431  0.3490  0.3792 -0.2823
11036SOL    HW134549   0.227   6.019   3.435  1.6239 -0.2893 -1.6173
11036SOL    HW234550   0.348   6.095   3.385 -0.2292  2.5187 -2.0840
11037SOL     OW34551   4.124   4.022   9.290 -0.1627  0.1363  0.3779
11037SOL    HW134552   4.212   3.986   9.278  0.1965  0.3879  2.0365
11037SOL    HW234553   4.065   3.950   9.267  0.5072 -0.5414  0.7333
11038SOL     OW34554   5.032   6.061   6.682 -0.3150 -0.5297 -0.0479
11038SOL    HW134555   4.945   6.039   6.649 -1.9925  1.2431  2.7542
11038SOL    HW234556   5.073   5.977   6.700 -1.9252 -1.4112 -0.2948
11039SOL     OW34557   2.816   3.557  10.954  0.3428  0.1907  0.3514
11039SOL    HW134558   2.873   3.489  10.990  2.0303  0.7260 -1.1350
11039SOL    HW234559   2.763   3.511  10.889  0.5391  0.0366  0.2959
11040SOL     OW34560   2.086   1.039   4.448  0.1461  0.3180 -0.5686
11040SOL    HW134561   2.175   1.046   4.413 -0.2555  1.4173 -1.4344
11040SOL    HW234562   2.098   1.038   4.543  1.0718  0.8252 -0.6687
11041SOL     OW34563   1.203   4.214   7.327  0.4406  0.3074 -0.3096
11041SOL    HW134564   1.217   4.120   7.311 -0.9014  0.2261 -1.0893
11041SOL    HW234565   1.219   4.255   7.242 -1.2013  0.5066 -0.5555
11042SOL     OW34566   3.143   1.362   9.909  0.0080 -0.2613  0.1699
11042SOL    HW134567   3.066   1.417   9.926  0.0185 -0.3839  0.6243
11042SOL    HW234568   3.209   1.424   9.878  0.1012  0.0358  0.9282
11043SOL     OW34569   5.462   7.741  12.019 -0.0023 -0.0017 -0.5349
11043SOL    HW134570   5.544   7.699  12.044  0.9115  1.8864 -0.2106
11043SOL    HW234571   5.474   7.765  11.927  0.8742  2.5034  0.1530
11044SOL     OW34572   1.539   7.054  10.238  0.2658  0.2740 -0.6534
11044SOL    HW134573   1.473   7.099  10.185  0.2480 -0.6244 -1.4029
11044SOL    HW234574   1.517   7.078  10.328 -1.4064 -0.4090 -0.8392
11045SOL     OW34575   1.453   2.693   7.836  0.4842  0.0704  0.2439
11045SOL    HW134576   1.425   2.603   7.846  0.7108 -0.2626 -1.6714
11045SOL    HW234577   1.372   2.744   7.832  0.2406 -0.3712 -1.0048
11046SOL     OW34578   0.482   6.425   1.244  0.2179 -0.3148 -0.7648
11046SOL    HW134579   0.536   6.409   1.321 -0.4073  0.9508 -0.0428
11046SOL    HW234580   0.477   6.339   1.200  2.9317 -0.4323 -0.9794
11047SOL     OW34581   6.692   5.289   6.263 -0.0913 -0.2428 -0.0994
11047SOL    HW134582   6.784   5.303   6.288 -0.1160  0.4309 -0.3720
11047SOL    HW234583   6.676   5.353   6.194 -0.1250 -1.8436 -1.6370
11048SOL     OW34584   4.610   3.620   4.865 -0.6365  0.7233 -0.2686
11048SOL    HW134585   4.650   3.706   4.866  0.9766  0.0123 -0.3451
11048SOL    HW234586   4.627   3.586   4.778 -0.0643 -0.1892  0.1814
11049SOL     OW34587   2.643   4.119   9.616 -0.5366  0.1571  0.4435
11049SOL    HW134588   2.638   4.111   9.521  0.3947  0.6403  0.3525
11049SOL    HW234589   2.562   4.165   9.640 -0.4852  0.5887 -0.1827
11050SOL     OW34590   2.470   6.892  12.072  0.1729  0.0680  0.3114
11050SOL    HW134591   2.388   6.857  12.035 -0.7421  1.9745  0.4381
11050SOL    HW234592   2.480   6.978  12.031  1.7771  0.1527  0.8200
11051SOL     OW34593   2.216   7.892   3.966 -0.6603  0.3067  0.3105
11051SOL    HW134594   2.246   7.946   4.040 -0.9368  0.6905  0.1414
11051SOL    HW234595   2.157   7.828   4.006 -1.1579  0.7942  0.3590
11052SOL     OW34596   1.053   5.153   0.281 -0.1292 -0.2842  0.0119
11052SOL    HW134597   1.011   5.234   0.253 -0.5804 -0.9033 -1.1481
11052SOL    HW234598   1.147   5.172   0.279  0.0026 -0.7423 -3.5898
11053SOL     OW34599   1.202   3.935  10.761 -0.0347 -0.0033  0.4587
11053SOL    HW134600   1.219   4.012  10.814 -0.4275  0.3219  0.1194
11053SOL    HW234601   1.252   3.949  10.680 -0.2046 -0.0439  0.3450
11054SOL     OW34602   3.106   7.380   7.449  0.5045  0.5281 -0.2299
11054SOL    HW134603   3.130   7.430   7.371  0.8783  2.1249  0.8565
11054SOL    HW234604   3.011   7.390   7.456  0.5558  0.9576 -0.1138
11055SOL     OW34605   4.416   4.652   9.488  0.2061 -0.5015 -0.1777
11055SOL    HW134606   4.334   4.695   9.513  1.0704 -0.3933  2.7210
11055SOL    HW234607   4.387   4.571   9.446 -1.4140 -0.6268  1.0614
11056SOL     OW34608   4.230   5.738   7.049 -0.1642  0.2721 -0.0830
11056SOL    HW134609   4.293   5.807   7.069 -0.9253  1.1541 -0.6425
11056SOL    HW234610   4.247   5.716   6.958  1.8586 -2.2226  0.7656
11057SOL     OW34611   1.122   3.294   1.675  0.2064 -0.2090 -0.2310
11057SOL    HW134612   1.205   3.319   1.633  0.3755 -0.7634 -0.2284
11057SOL    HW234613   1.139   3.302   1.769  0.3747 -0.6887 -0.2195
11058SOL     OW34614   6.823   4.258   8.490  0.4406 -0.3751 -0.5321
11058SOL    HW134615   6.785   4.299   8.568 -0.6775 -0.7663 -0.8453
11058SOL    HW234616   6.747   4.233   8.437  1.1091 -2.0403 -0.7574
11059SOL     OW34617   1.757   0.099   4.136  0.2494 -0.0144  0.6171
11059SOL    HW134618   1.694   0.165   4.108  0.7147  0.0527 -0.3207
11059SOL    HW234619   1.759   0.035   4.065  0.1515 -0.7944  1.3076
11060SOL     OW34620   3.996   1.842   9.489 -0.1194 -0.0542  0.4204
11060SOL    HW134621   4.060   1.779   9.457 -1.0482 -1.6100  1.4859
11060SOL    HW234622   3.941   1.862   9.413  0.2303 -0.4827  0.0513
11061SOL     OW34623   5.786   7.843   9.896  0.1714 -0.3555  0.1320
11061SOL    HW134624   5.812   7.865   9.807  2.9189 -1.4609  0.5628
11061SOL    HW234625   5.722   7.910   9.920  1.6963  1.8198 -1.5532
11062SOL     OW34626   3.568   4.445  10.354  0.3442 -0.7858 -0.6026
11062SOL    HW134627   3.571   4.446  10.450  1.0042  0.7083 -0.6149
11062SOL    HW234628   3.505   4.513  10.331 -0.2225 -1.5043 -1.2382
11063SOL     OW34629   5.456   6.400   9.001 -0.0012 -0.4516 -0.3476
11063SOL    HW134630   5.406   6.443   8.931 -1.0603 -0.0184  0.6353
11063SOL    HW234631   5.526   6.354   8.955 -0.4943  0.0457 -1.6703
11064SOL     OW34632   6.283   6.090   0.506  0.5154 -0.1074 -0.1941
11064SOL    HW134633   6.232   6.109   0.585  0.3182  0.6515 -0.5004
11064SOL    HW234634   6.233   6.021   0.462  0.8660 -0.8663  0.5647
11065SOL     OW34635   3.708   1.177   5.910 -0.3761  0.8361 -0.2277
11065SOL    HW134636   3.780   1.165   5.847 -0.3622  0.9871 -0.2394
11065SOL    HW234637   3.675   1.265   5.893  0.4274  1.3567  0.8000
11066SOL     OW34638   4.798   2.872   9.679 -0.5063 -0.0555 -0.4328
11066SOL    HW134639   4.839   2.958   9.663  2.5263 -0.8965  1.9078
11066SOL    HW234640   4.789   2.834   9.592  2.5814  0.8117 -1.2630
11067SOL     OW34641   0.721   1.039   3.140  0.1564 -0.3092  0.1131
11067SOL    HW134642   0.689   0.948   3.138  0.8702 -0.5704  0.0018
11067SOL    HW234643   0.694   1.075   3.056 -1.1374 -0.0477  0.6194
11068SOL     OW34644   2.546   5.984   3.729 -0.2705  0.1617  0.2273
11068SOL    HW134645   2.573   6.069   3.695 -1.1383  0.0502 -0.8019
11068SOL    HW234646   2.457   5.998   3.762 -0.7310 -0.5010 -0.6773
11069SOL     OW34647   2.420   2.366  10.874  0.2444  0.1560  0.2168
11069SOL    HW134648   2.427   2.457  10.903 -0.5252  0.7160 -1.2641
11069SOL    HW234649   2.507   2.329  10.892 -0.4318  0.0335  4.3227
11070SOL     OW34650   7.856   5.204   4.302 -0.7617 -0.4743  0.6183
11070SOL    HW134651   7.851   5.296   4.331 -0.6565  0.2651 -1.5044
11070SOL    HW234652   7.935   5.170   4.343 -1.6893 -0.1593  2.7835
11071SOL     OW34653   0.799   2.061   8.173  0.4653  0.7067  0.0395
11071SOL    HW134654   0.835   2.099   8.254  0.2746  1.6013 -0.2824
11071SOL    HW234655   0.757   2.135   8.129 -0.3892  0.0038 -0.3543
11072SOL     OW34656   0.337   1.607   3.190 -0.1227 -0.2021 -0.7586
11072SOL    HW134657   0.353   1.615   3.096  0.5933 -1.3933 -0.7612
11072SOL    HW234658   0.423   1.622   3.230  0.1241 -2.1097 -0.4708
11073SOL     OW34659   7.563   5.139   3.953 -0.4840  0.2575  0.4812
11073SOL    HW134660   7.564   5.234   3.967 -0.0965  0.0731  1.8034
11073SOL    HW234661   7.584   5.102   4.038  0.6695 -0.9912 -0.3059
11074SOL     OW34662   6.853   5.391   2.922  0.0509 -0.0716 -0.3838
11074SOL    HW134663   6.826   5.400   2.831  0.2143 -1.3009 -0.5623
11074SOL    HW234664   6.935   5.440   2.927  0.5002 -0.7251 -1.1178
11075SOL     OW34665   7.668   7.249   7.310 -0.4191  0.5035 -0.3328
11075SOL    HW134666   7.660   7.202   7.227  1.0817 -1.8091  0.7475
11075SOL    HW234667   7.578   7.265   7.338 -1.0053 -1.7959 -0.7638
11076SOL     OW34668   4.600   7.919   2.066  0.3710 -0.0863  0.2583
11076SOL    HW134669   4.692   7.899   2.052  0.2929  0.3273 -0.8809
11076SOL    HW234670   4.589   8.008   2.033 -1.1168 -1.2551 -2.7316
11077SOL     OW34671   2.350   3.743   2.123  0.2754  0.2780 -0.0320
11077SOL    HW134672   2.342   3.839   2.122  0.1821  0.2723  0.0589
11077SOL    HW234673   2.355   3.718   2.031  1.0023  0.4243 -0.0342
11078SOL     OW34674   1.702   0.013  12.123  0.0225 -0.0979  0.0568
11078SOL    HW134675   1.694   0.013  12.028  0.9398  1.3845 -0.0428
11078SOL    HW234676   1.613  -0.004  12.154 -0.3107 -0.4554 -1.0547
11079SOL     OW34677   0.319   0.140  10.011 -0.1775 -0.2587 -0.1558
11079SOL    HW134678   0.300   0.233  10.017  2.8600  0.5012 -1.0414
11079SOL    HW234679   0.314   0.119   9.918 -1.2115 -1.1216  0.0644
11080SOL     OW34680   5.659   0.134   1.954  0.4060  0.1183  0.6040
11080SOL    HW134681   5.604   0.058   1.970  0.6251  0.0195  0.8979
11080SOL    HW234682   5.696   0.156   2.040 -0.0457  0.8585  0.6215
11081SOL     OW34683   7.145   5.939  10.101  0.1598  0.2278 -0.1105
11081SOL    HW134684   7.117   6.016  10.050 -0.4104 -0.6172 -1.1287
11081SOL    HW234685   7.128   5.865  10.042 -0.5268 -0.7973  1.3276
11082SOL     OW34686   5.017   7.913   6.932  0.0477  0.1618  0.0665
11082SOL    HW134687   4.950   7.965   6.977  0.4283  0.7429 -0.0241
11082SOL    HW234688   5.080   7.890   7.000 -0.5088 -0.8395  0.2578
11083SOL     OW34689   3.950   6.773   3.432 -0.0181 -0.5724 -0.1978
11083SOL    HW134690   4.011   6.709   3.469  1.5973  0.3245 -1.1936
11083SOL    HW234691   3.992   6.803   3.352 -0.9229  1.4003 -0.0034
11084SOL     OW34692   3.005   4.868  12.223  0.2166 -0.8185 -0.7814
11084SOL    HW134693   3.078   4.901  12.275  0.0107 -2.7772  0.8899
11084SOL    HW234694   2.956   4.946  12.198 -0.0390  0.2635  2.5904
11085SOL     OW34695   6.477   5.808   1.324 -0.1509 -0.1218 -0.1392
11085SOL    HW134696   6.434   5.889   1.350  2.0223  1.2787 -0.6086
11085SOL    HW234697   6.535   5.787   1.397  2.7724  1.4478 -1.8254
11086SOL     OW34698   5.199   0.557   1.804 -0.4789 -0.2764 -0.2674
11086SOL    HW134699   5.251   0.529   1.879  0.3004  1.1320 -0.2457
11086SOL    HW234700   5.244   0.518   1.728  0.2744  0.4149 -0.1957
11087SOL     OW34701   2.494   1.825   3.736  0.3927  0.7042 -0.1202
11087SOL    HW134702   2.543   1.801   3.814  0.4448  2.5099  0.4507
11087SOL    HW234703   2.540   1.781   3.664  0.8530 -0.2887  0.7693
11088SOL     OW34704   7.119   4.037  10.966 -0.1221 -0.3856  0.0689
11088SOL    HW134705   7.110   3.973  11.037 -0.4549 -0.1818  0.2127
11088SOL    HW234706   7.040   4.090  10.972 -1.2902 -1.7794 -1.8742
11089SOL     OW34707   6.918   1.668   2.084  0.3916 -0.3019 -0.0748
11089SOL    HW134708   6.903   1.763   2.091  2.1695  0.1306 -1.5259
11089SOL    HW234709   6.918   1.638   2.175 -0.5620  1.0178  0.4005
11090SOL     OW34710   1.360   3.587   7.153 -0.0034 -0.2952 -0.0496
11090SOL    HW134711   1.384   3.498   7.180  2.6956  0.4401  0.2609
11090SOL    HW234712   1.379   3.590   7.059  0.1423  0.0057 -0.0120
11091SOL     OW34713   3.480   0.816   9.315  0.4079 -0.1973 -0.3975
11091SOL    HW134714   3.401   0.868   9.302  1.4633  1.5600 -0.2109
11091SOL    HW234715   3.492   0.813   9.410  0.4032 -0.7364 -0.4091
11092SOL     OW34716   1.104   3.362   6.385 -0.3021  0.3870  0.4709
11092SOL    HW134717   1.056   3.310   6.450 -1.0072 -1.1326 -1.1815
11092SOL    HW234718   1.181   3.309   6.364  1.0900  1.8816  1.6216
11093SOL     OW34719   1.396   4.017   8.527 -0.0017 -0.3880  0.0160
11093SOL    HW134720   1.441   3.987   8.606  0.2516 -0.2235 -0.0657
11093SOL    HW234721   1.411   3.948   8.463  2.6600  0.9457 -0.9523
11094SOL     OW34722   5.216   4.457   1.048 -0.4229 -0.2346  0.4859
11094SOL    HW134723   5.158   4.528   1.077 -0.8071 -0.3850  0.0969
11094SOL    HW234724   5.293   4.502   1.014  0.8269 -0.0522  3.2173
11095SOL     OW34725   1.765   1.407  11.403 -0.0411  0.4965  0.3230
11095SOL    HW134726   1.802   1.369  11.483  0.7105  0.6690  0.0626
11095SOL    HW234727   1.817   1.371  11.332 -1.3882 -0.5041 -0.2041
11096SOL     OW34728   1.361   4.435   0.099 -0.3531 -0.1440 -0.0734
11096SOL    HW134729   1.274   4.396   0.094 -0.1383 -0.4809 -1.7676
11096SOL    HW234730   1.421   4.362   0.082  0.0987  0.6834 -2.3256
11097SOL     OW34731   1.942   5.583   3.239 -0.8325  0.2523 -0.2422
11097SOL    HW134732   1.965   5.604   3.149 -1.7064 -0.7001 -0.7070
11097SOL    HW234733   1.904   5.495   3.234 -0.8006  0.1479  1.0695
11098SOL     OW34734   0.190   3.714   9.254  0.2773 -0.4206  0.3093
11098SOL    HW134735   0.280   3.717   9.288 -0.0888  0.1495  1.2631
11098SOL    HW234736   0.141   3.774   9.309 -0.6813 -0.6355 -0.2758
11099SOL     OW34737   2.815   5.946  10.597 -0.6130 -0.2906  0.1208
11099SOL    HW134738   2.736   5.969  10.646 -0.7194 -1.2051  0.3953
11099SOL    HW234739   2.784   5.911  10.514 -0.4962 -0.4599  0.1464
11100SOL     OW34740   4.486   2.101   7.125  0.4825  0.2348  0.2890
11100SOL    HW134741   4.549   2.142   7.184  0.3304  1.8774 -0.6040
11100SOL    HW234742   4.532   2.095   7.042  0.0982 -0.3553  0.1163
11101SOL     OW34743   1.424   5.315   5.350 -0.5086 -0.1998  0.2232
11101SOL    HW134744   1.425   5.369   5.428 -1.9569 -0.3383  0.3632
11101SOL    HW234745   1.332   5.299   5.333 -0.3563  1.1508 -2.4321
11102SOL     OW34746   2.532   5.447   7.582  0.6961  0.4378  0.2159
11102SOL    HW134747   2.606   5.505   7.600 -0.5391  2.2416 -0.2919
11102SOL    HW234748   2.530   5.440   7.487  0.1567  0.4595  0.2255
11103SOL     OW34749   1.711   5.282   5.542  0.3264  0.5365  0.5367
11103SOL    HW134750   1.667   5.367   5.547  2.1144  1.4681  1.3155
11103SOL    HW234751   1.774   5.283   5.614  1.4404 -0.8220 -0.3572
11104SOL     OW34752   1.078   1.866   5.780 -0.1705 -0.1105 -0.1691
11104SOL    HW134753   1.065   1.857   5.874 -1.2110  1.2852 -0.1467
11104SOL    HW234754   1.027   1.943   5.756  0.1620 -0.3782 -1.8663
11105SOL     OW34755   2.813   4.575   4.428 -0.0077  0.4808  0.0939
11105SOL    HW134756   2.724   4.607   4.443  0.3957  1.4553  0.5426
11105SOL    HW234757   2.829   4.514   4.501 -1.0131 -1.3210 -1.1262
11106SOL     OW34758   5.457   4.456   6.897 -0.6891  0.4523 -0.6611
11106SOL    HW134759   5.483   4.421   6.982 -0.7055 -0.7595 -1.1257
11106SOL    HW234760   5.497   4.396   6.833 -1.9357  0.4352 -1.4652
11107SOL     OW34761   5.783   7.506  11.252 -0.3137 -0.0253  0.4517
11107SOL    HW134762   5.761   7.480  11.341  0.3743  0.4723  0.7721
11107SOL    HW234763   5.817   7.595  11.261  1.9798 -0.8153 -0.0049
11108SOL     OW34764   7.586   2.582   0.310 -0.3629 -0.6534 -0.3092
11108SOL    HW134765   7.634   2.636   0.247 -1.6427 -0.7771 -1.4371
11108SOL    HW234766   7.652   2.524   0.347  0.7068  0.4729 -0.3783
11109SOL     OW34767   2.009   4.606  11.123 -0.3380  0.7149  0.3110
11109SOL    HW134768   1.981   4.557  11.201 -0.2822 -0.2241 -0.2448
11109SOL    HW234769   2.104   4.612  11.133 -0.4867  2.1657  1.1949
11110SOL     OW34770   0.130   3.129  10.880  0.5720  0.1695  0.1834
11110SOL    HW134771   0.057   3.185  10.908 -0.1891 -1.4490  1.5979
11110SOL    HW234772   0.197   3.143  10.946 -0.2462 -1.7324  1.4958
11111SOL     OW34773   6.596   2.276   6.800 -0.7232 -0.0468 -0.0637
11111SOL    HW134774   6.683   2.289   6.763 -0.6262 -0.4556  0.0209
11111SOL    HW234775   6.583   2.181   6.800 -1.7253  0.0451 -1.3693
11112SOL     OW34776   5.517   3.161   0.219  0.3346 -0.0553 -0.8615
11112SOL    HW134777   5.572   3.139   0.144 -1.6867  0.0509 -2.4711
11112SOL    HW234778   5.427   3.147   0.188 -0.5732 -0.3333  1.6647
11113SOL     OW34779   0.521   3.137   4.345 -0.0552  0.2268  0.5534
11113SOL    HW134780   0.501   3.204   4.279  1.0935  0.4405  0.3960
11113SOL    HW234781   0.594   3.088   4.308 -1.5511 -1.8468  0.1955
11114SOL     OW34782   0.020   6.531  11.920 -0.5244  0.4086 -0.6455
11114SOL    HW134783  -0.053   6.502  11.865 -0.6452  0.7254 -0.6540
11114SOL    HW234784  -0.015   6.606  11.968 -0.0860  0.7885 -0.9221
11115SOL     OW34785   7.834   0.043  10.869  0.4056 -0.5586 -0.4197
11115SOL    HW134786   7.863  -0.012  10.942  1.0355  1.6161  1.0483
11115SOL    HW234787   7.901   0.029  10.802  0.8772 -1.1424  0.1491
11116SOL     OW34788   5.385   2.393   5.868  0.1488 -0.8214  0.6535
11116SOL    HW134789   5.329   2.319   5.843 -0.5113  0.1703 -0.9698
11116SOL    HW234790   5.371   2.403   5.962 -4.1545  0.6868  0.0624
11117SOL     OW34791   1.595   3.977  11.650  0.0387  0.4198  0.1582
11117SOL    HW134792   1.607   3.888  11.619 -0.0688 -0.1300  1.5848
11117SOL    HW234793   1.516   3.973  11.704  1.2256  0.8453  2.0303
11118SOL     OW34794   5.943   5.080   6.832  0.0952 -0.1665 -0.0507
11118SOL    HW134795   5.866   5.064   6.887 -0.0203 -2.4881 -0.7755
11118SOL    HW234796   6.018   5.071   6.892 -0.1160 -0.0052  0.2397
11119SOL     OW34797   7.848   6.347   6.151 -0.1997  0.4794  0.6827
11119SOL    HW134798   7.760   6.370   6.121 -0.5192 -1.4411 -0.0087
11119SOL    HW234799   7.837   6.332   6.245 -0.3950  1.1308  0.7719
11120SOL     OW34800   7.441   2.948   9.429  0.2275  0.3173  0.3268
11120SOL    HW134801   7.515   2.887   9.432 -1.0670 -1.3438 -0.4106
11120SOL    HW234802   7.414   2.949   9.338 -0.9594  0.5624  0.6655
11121SOL     OW34803   4.373   0.643   0.443 -0.1705  0.5613  0.4729
11121SOL    HW134804   4.325   0.724   0.458 -0.5530  0.1505  1.6185
11121SOL    HW234805   4.463   0.670   0.426 -0.1341  1.2071  1.5921
11122SOL     OW34806   3.114   1.468  12.434 -0.7322 -0.2767 -0.0930
11122SOL    HW134807   3.122   1.378  12.400 -0.2438  0.2437 -1.4364
11122SOL    HW234808   3.091   1.457  12.526 -1.0489 -1.7796 -0.3270
11123SOL     OW34809   5.214   5.884   5.883 -0.0257  0.3520  0.1825
11123SOL    HW134810   5.255   5.828   5.817  1.3943  1.9514 -0.3694
11123SOL    HW234811   5.265   5.869   5.963 -0.5850 -0.2047  0.4503
11124SOL     OW34812   5.552   2.763   3.229  0.8214  0.0212 -0.6810
11124SOL    HW134813   5.615   2.696   3.257 -0.4061 -0.2534  1.7301
11124SOL    HW234814   5.526   2.806   3.311 -2.6453 -0.3647 -1.4398
11125SOL     OW34815   7.556   3.504   7.732  0.3354  0.1047 -0.1106
11125SOL    HW134816   7.534   3.594   7.755  0.3024  0.6704 -2.1319
11125SOL    HW234817   7.478   3.471   7.686  0.8062 -0.5294 -0.4785
11126SOL     OW34818   5.138   4.440  10.446 -0.1903 -0.3120  0.1304
11126SOL    HW134819   5.103   4.470  10.530  0.9175  0.6287  0.2814
11126SOL    HW234820   5.186   4.360  10.466 -1.5244 -1.1798  0.0463
11127SOL     OW34821   6.187   6.359  10.491  0.7424  0.5963 -0.2935
11127SOL    HW134822   6.171   6.366  10.585  2.7916  2.7689 -0.0030
11127SOL    HW234823   6.109   6.399  10.451 -1.1614 -2.2900  0.2801
11128SOL     OW34824   6.167   4.381   8.667  0.0406  0.2922  0.0584
11128SOL    HW134825   6.251   4.391   8.624  1.2244  1.8301  2.4565
11128SOL    HW234826   6.135   4.471   8.677 -1.4525 -0.2038  0.0305
11129SOL     OW34827   4.697   1.927   5.619  0.0294  0.1635 -0.2603
11129SOL    HW134828   4.766   1.931   5.553  0.4114  0.2322  0.1369
11129SOL    HW234829   4.633   1.993   5.591 -0.5939 -0.9149 -1.4140
11130SOL     OW34830   6.667   3.069   6.925 -0.2661  0.6465 -0.3885
11130SOL    HW134831   6.756   3.072   6.892 -0.3079  0.1013 -0.5707
11130SOL    HW234832   6.677   3.075   7.020 -0.1417  2.1126 -0.4775
11131SOL     OW34833   1.207   2.800   2.137  0.3568  0.6213  0.1245
11131SOL    HW134834   1.126   2.765   2.101  0.3423 -0.2714  0.9616
11131SOL    HW234835   1.246   2.726   2.184  0.5613  1.6225  1.5870
11132SOL     OW34836   6.953   6.766  10.579 -0.0627 -0.8885  0.1366
11132SOL    HW134837   6.891   6.704  10.539  0.7793 -1.7651  0.1563
11132SOL    HW234838   6.911   6.791  10.661 -1.2097 -0.0747 -0.6601
11133SOL     OW34839   1.886   2.636   1.645 -0.6146  0.5723 -0.2649
11133SOL    HW134840   1.832   2.558   1.655 -0.4685  0.5725  0.5952
11133SOL    HW234841   1.974   2.608   1.668 -0.1176  0.4400 -2.1948
11134SOL     OW34842   1.309   7.875   3.574 -0.8991  0.1464  0.1042
11134SOL    HW134843   1.294   7.969   3.580 -1.8409 -0.0678  1.5705
11134SOL    HW234844   1.248   7.845   3.506  0.8757  0.8454 -1.8958
11135SOL     OW34845   3.050   3.944   0.848 -0.0335 -0.6165  0.1977
11135SOL    HW134846   3.126   3.889   0.831 -0.3044 -0.7661 -0.5919
11135SOL    HW234847   3.000   3.897   0.915 -0.3600 -1.4451 -0.6045
11136SOL     OW34848   5.699   4.514  11.111  0.3026  0.0855  0.1001
11136SOL    HW134849   5.630   4.458  11.078 -1.1642  2.8741 -1.9877
11136SOL    HW234850   5.703   4.495  11.205 -2.1799 -1.2747  0.0060
11137SOL     OW34851   6.688   2.381   3.009  0.0132  0.6663 -0.2840
11137SOL    HW134852   6.611   2.430   2.977  0.6596  1.7481 -0.2389
11137SOL    HW234853   6.710   2.423   3.092 -1.2431 -1.6991  1.3655
11138SOL     OW34854   0.724   2.590   0.660  0.1204  0.3479  0.2367
11138SOL    HW134855   0.783   2.645   0.609  0.1450  1.1568  1.1057
11138SOL    HW234856   0.696   2.646   0.732 -4.1232  1.1128 -1.7070
11139SOL     OW34857   5.426   1.626  12.373 -0.1046  0.6226 -0.6869
11139SOL    HW134858   5.414   1.614  12.279 -0.8789  1.9516 -0.7804
11139SOL    HW234859   5.518   1.650  12.383 -0.1872  1.1525 -1.1861
11140SOL     OW34860   2.530   5.645   2.234 -0.0495  0.6381  0.0192
11140SOL    HW134861   2.547   5.649   2.328 -0.8422  1.4989  0.1427
11140SOL    HW234862   2.530   5.736   2.205 -2.5079  0.6146 -0.2711
11141SOL     OW34863   6.943   6.690  11.824 -0.2461 -0.3084  0.3426
11141SOL    HW134864   6.918   6.629  11.755 -1.7125  0.1590  0.4234
11141SOL    HW234865   6.883   6.671  11.896 -1.6088  1.9768 -0.0557
11142SOL     OW34866   2.120   0.931   1.173  0.4377 -0.5001  0.3437
11142SOL    HW134867   2.164   0.861   1.220 -0.0262 -0.8329  0.2914
11142SOL    HW234868   2.096   0.892   1.089 -1.2363 -0.7993  0.9139
11143SOL     OW34869   7.251   2.405  11.189  0.3708 -0.2810  0.3220
11143SOL    HW134870   7.188   2.407  11.117 -1.2142 -0.0910  1.6700
11143SOL    HW234871   7.267   2.312  11.205  0.6553 -0.3263 -0.1851
11144SOL     OW34872   2.525   3.530   9.376  0.5172  0.0199 -0.1960
11144SOL    HW134873   2.536   3.621   9.404  1.4049  0.4265 -1.7378
11144SOL    HW234874   2.436   3.526   9.342  0.3932  0.2425  0.0980
11145SOL     OW34875   3.565   6.876   2.801  0.2288  0.0849 -0.8208
11145SOL    HW134876   3.604   6.963   2.812  2.1874 -0.5707 -1.9030
11145SOL    HW234877   3.580   6.832   2.885 -1.8873  1.1380  0.1697
11146SOL     OW34878   5.889   7.273   1.845 -0.6360  0.4825  0.0291
11146SOL    HW134879   5.874   7.339   1.913 -1.7626  1.4882 -1.1453
11146SOL    HW234880   5.952   7.213   1.884 -2.1914  0.2688  2.4706
11147SOL     OW34881   2.843   2.603   4.611 -0.0769 -0.0451  0.3643
11147SOL    HW134882   2.840   2.697   4.592  1.2705 -0.2850 -1.2879
11147SOL    HW234883   2.937   2.582   4.612 -0.3640 -1.7171 -1.4471
11148SOL     OW34884   6.044   3.645   6.764  0.3171  0.3574 -0.6090
11148SOL    HW134885   6.113   3.671   6.825 -0.3042  1.0231 -0.1726
11148SOL    HW234886   6.053   3.550   6.755 -0.0156  0.1450  1.0677
11149SOL     OW34887   0.609   4.140   0.658  0.5454 -1.1385  0.1962
11149SOL    HW134888   0.672   4.155   0.728  1.4553  3.6596 -1.2848
11149SOL    HW234889   0.657   4.162   0.578 -1.8507 -1.5283 -1.4386
11150SOL     OW34890   0.306   3.613   0.648  0.2734  0.4182 -1.0499
11150SOL    HW134891   0.260   3.623   0.732 -0.9634  0.5037 -1.7238
11150SOL    HW234892   0.385   3.666   0.658 -0.1504  0.9071 -0.1370
11151SOL     OW34893   0.841   1.620   2.584  0.0902  0.1875  0.4713
11151SOL    HW134894   0.864   1.563   2.658 -1.5900  1.0794  1.7461
11151SOL    HW234895   0.838   1.708   2.622 -0.6710  0.6933 -0.7064
11152SOL     OW34896   4.539   7.262   0.682 -0.1013  0.0390 -0.5027
11152SOL    HW134897   4.629   7.279   0.709 -0.2999 -1.0880  1.0166
11152SOL    HW234898   4.501   7.349   0.669  0.4759  0.6363  1.4621
11153SOL     OW34899   2.731   1.736  10.312  0.0402 -0.0150 -0.0388
11153SOL    HW134900   2.652   1.783  10.283  0.7815  0.0712 -2.1138
11153SOL    HW234901   2.721   1.648  10.276  0.9320  0.0392 -0.4443
11154SOL     OW34902   2.221   4.813  11.309  0.1389  0.0879 -0.6538
11154SOL    HW134903   2.240   4.907  11.319  2.3979 -0.4634  0.8390
11154SOL    HW234904   2.261   4.790  11.225  0.9519  0.1591 -0.2945
11155SOL     OW34905   6.591   7.304   6.744  0.2144 -0.2352  0.3636
11155SOL    HW134906   6.626   7.365   6.809  1.8706 -0.8171  0.0615
11155SOL    HW234907   6.548   7.236   6.795  2.1166 -1.0709  0.9592
11156SOL     OW34908   6.987   6.302  11.489 -0.6437  0.2985 -0.1323
11156SOL    HW134909   6.942   6.382  11.515 -0.4247  0.8599 -1.4222
11156SOL    HW234910   6.946   6.233  11.541 -0.3196  1.3274  1.5737
11157SOL     OW34911   5.439   1.653   1.699 -0.0046 -0.4297 -0.2428
11157SOL    HW134912   5.531   1.669   1.678 -0.3766  1.0011 -0.9234
11157SOL    HW234913   5.435   1.663   1.794  0.3952  0.4083 -0.2990
11158SOL     OW34914   5.134   5.624   2.596  0.0652  0.1621 -0.1685
11158SOL    HW134915   5.113   5.542   2.640 -2.8938  0.8537 -0.0708
11158SOL    HW234916   5.216   5.653   2.637  0.5759 -2.1436  0.5816
11159SOL     OW34917   4.782   2.534  10.551 -0.0796 -0.5363  0.0851
11159SOL    HW134918   4.814   2.623  10.538  0.0957 -0.8422 -1.7540
11159SOL    HW234919   4.697   2.545  10.595 -0.1610  0.5399 -0.3341
11160SOL     OW34920   4.826   4.741  11.332  0.1534  0.1216  0.6599
11160SOL    HW134921   4.851   4.781  11.248 -0.4633 -0.7400  0.0587
11160SOL    HW234922   4.908   4.739  11.382  0.1391  2.5184  0.8953
11161SOL     OW34923   7.564   2.824   6.003 -0.6356 -0.2492 -0.2148
11161SOL    HW134924   7.608   2.858   5.925 -0.1051  0.2825  0.3045
11161SOL    HW234925   7.531   2.902   6.047  0.5147 -0.3986  0.9481
11162SOL     OW34926   7.046   4.514   7.808 -0.3903 -0.0473 -0.8201
11162SOL    HW134927   7.053   4.582   7.741 -0.7445 -0.2928 -1.1100
11162SOL    HW234928   7.131   4.516   7.853 -1.2207  2.2151  0.7964
11163SOL     OW34929   6.441   1.066   1.394  0.0578 -0.5634  0.0068
11163SOL    HW134930   6.394   1.131   1.446 -0.1564 -1.4815  1.0028
11163SOL    HW234931   6.449   1.105   1.307 -0.0229  0.7931  0.5945
11164SOL     OW34932   5.376   7.488   3.349  0.4251 -0.3566  0.0562
11164SOL    HW134933   5.354   7.558   3.411  0.0371  0.6938 -1.2418
11164SOL    HW234934   5.361   7.526   3.263 -1.5262 -2.5699 -0.6843
11165SOL     OW34935   0.034   7.403   7.872  0.6962 -0.3934 -0.0382
11165SOL    HW134936  -0.026   7.328   7.868  1.0563 -0.6242 -2.5089
11165SOL    HW234937   0.103   7.375   7.931  0.2509 -1.5646 -0.0468
11166SOL     OW34938   0.023   5.176   0.309  0.7166  0.6676 -0.2598
11166SOL    HW134939   0.004   5.215   0.394  1.1976 -0.2812  0.2935
11166SOL    HW234940   0.087   5.107   0.328 -0.9242 -1.1653 -1.0441
11167SOL     OW34941   2.077   6.760  10.451  0.6979  0.0240  0.2139
11167SOL    HW134942   2.013   6.799  10.510  0.9768 -0.1490  0.6372
11167SOL    HW234943   2.051   6.791  10.364 -0.8388 -1.1939  0.1814
11168SOL     OW34944   3.098   3.741  11.248  0.0771 -0.1324  0.4351
11168SOL    HW134945   3.177   3.796  11.247  0.0511 -0.0187 -1.8277
11168SOL    HW234946   3.027   3.800  11.222 -0.0618 -0.9960 -1.3411
11169SOL     OW34947   3.649   7.933   4.828 -0.5230 -0.0924 -0.1301
11169SOL    HW134948   3.706   7.996   4.873  0.9893 -1.2783 -0.3008
11169SOL    HW234949   3.579   7.914   4.890 -1.3298  2.1348 -0.2816
11170SOL     OW34950   4.323   5.873   3.070 -0.3613  0.2414 -0.1969
11170SOL    HW134951   4.316   5.808   3.140  1.6026  0.1404 -0.0500
11170SOL    HW234952   4.250   5.852   3.012 -0.8271 -0.9710  0.7709
11171SOL     OW34953   6.082   2.267   3.716  0.2560 -0.3110 -0.0238
11171SOL    HW134954   6.054   2.328   3.648 -0.1260  0.8853  1.1509
11171SOL    HW234955   6.153   2.312   3.761 -2.5766  1.2770  3.4660
11172SOL     OW34956   2.784   6.044   0.912 -0.4279  0.2881 -0.0365
11172SOL    HW134957   2.794   6.081   0.824 -0.0759  0.4895  0.0866
11172SOL    HW234958   2.694   6.011   0.914 -0.2197 -0.3359 -0.7089
11173SOL     OW34959   1.817   2.858  11.266  0.4025  0.2470  0.8427
11173SOL    HW134960   1.846   2.866  11.357  2.3475  0.9161  0.2038
11173SOL    HW234961   1.858   2.777  11.235 -1.3631 -0.7327  0.8984
11174SOL     OW34962   2.814   7.115   5.339 -0.1097 -0.3810 -0.4600
11174SOL    HW134963   2.723   7.089   5.322 -0.9005  1.3314  0.8294
11174SOL    HW234964   2.846   7.146   5.254  0.4104 -3.9175 -1.7106
11175SOL     OW34965   5.257   5.748   4.761  0.4457 -0.1936 -0.1718
11175SOL    HW134966   5.317   5.820   4.743 -0.7920  0.7272 -0.7836
11175SOL    HW234967   5.282   5.680   4.698  1.1288 -0.0020 -0.1162
11176SOL     OW34968   7.782   3.885   4.267 -0.2726 -0.1366 -1.1886
11176SOL    HW134969   7.833   3.916   4.342 -0.5084  1.3496 -1.6013
11176SOL    HW234970   7.747   3.800   4.294  1.5874 -0.7400 -0.5289
11177SOL     OW34971   5.479   7.784   0.136  0.5125 -0.0389  0.4503
11177SOL    HW134972   5.420   7.816   0.068 -0.4964 -4.3074 -1.0319
11177SOL    HW234973   5.566   7.784   0.095  0.2352 -0.7399 -0.1536
11178SOL     OW34974   2.516   3.221  10.272 -0.1285 -0.2580 -0.2633
11178SOL    HW134975   2.431   3.187  10.300 -0.4033  0.7261  0.1108
11178SOL    HW234976   2.496   3.295  10.215  0.4497  1.5040  1.7141
11179SOL     OW34977   2.763   3.083   0.557 -0.0486  0.5920 -0.5938
11179SOL    HW134978   2.740   3.174   0.576 -1.5405 -0.2209  1.8624
11179SOL    HW234979   2.823   3.057   0.627  0.7833 -0.1870 -1.5569
11180SOL     OW34980   5.043   5.881  10.052 -0.1311  0.2402  0.1841
11180SOL    HW134981   5.014   5.969  10.028  2.2322  0.9750 -0.2475
11180SOL    HW234982   5.096   5.895  10.130  2.8142 -0.2667 -1.5755
11181SOL     OW34983   1.122   4.324   0.085 -0.5818  0.4227  0.2980
11181SOL    HW134984   1.104   4.273   0.164 -1.4950 -0.0420 -0.1845
11181SOL    HW234985   1.055   4.296   0.023 -0.3883  1.3831 -0.3719
11182SOL     OW34986   3.807   7.719   0.317 -0.0972 -0.3141  0.5255
11182SOL    HW134987   3.783   7.804   0.278  0.0954 -0.4611  0.0877
11182SOL    HW234988   3.880   7.688   0.264 -1.1724 -1.4990 -0.3240
11183SOL     OW34989   4.264   6.624   2.275 -0.3742  0.2552 -0.4439
11183SOL    HW134990   4.291   6.714   2.295  0.6628 -0.3428  1.0174
11183SOL    HW234991   4.344   6.572   2.283 -1.1308 -0.9380 -0.2934
11184SOL     OW34992   2.460   5.725   0.426 -0.4599  0.0388 -0.0017
11184SOL    HW134993   2.474   5.630   0.417 -0.9945 -0.1784  1.2670
11184SOL    HW234994   2.546   5.759   0.450 -0.3621 -0.1747 -0.0366
11185SOL     OW34995   0.479   6.002   0.627  0.1219 -0.2605 -0.3511
11185SOL    HW134996   0.440   6.066   0.687  1.0696  1.5638 -1.5820
11185SOL    HW234997   0.422   5.925   0.634 -0.8742  0.5763  1.4398
11186SOL     OW34998   7.189   1.084   5.543 -0.5648 -0.4479 -0.2304
11186SOL    HW134999   7.161   0.994   5.531 -0.9830 -0.4843  0.9348
11186SOL    HW235000   7.139   1.115   5.618 -0.4668  0.7751 -0.6478
11187SOL     OW35001   4.253   0.804   2.219  0.0609 -0.3068  0.3431
11187SOL    HW135002   4.245   0.723   2.270  0.2898 -0.1899  0.5646
11187SOL    HW235003   4.346   0.823   2.217  0.2047 -1.0676 -1.3274
11188SOL     OW35004   3.273   6.234  10.120 -0.4154  1.0171 -0.1133
11188SOL    HW135005   3.303   6.189  10.199 -0.2431 -1.0960 -1.3303
11188SOL    HW235006   3.341   6.299  10.103  1.5706 -1.0738 -0.6170
11189SOL     OW35007   1.424   3.565   8.460  0.9050  0.2219 -0.0359
11189SOL    HW135008   1.399   3.518   8.381  0.1538  0.3551  0.1172
11189SOL    HW235009   1.436   3.497   8.526  0.8272  0.1711 -0.0740
11190SOL     OW35010   5.467   6.818   7.971  0.1993  0.3731  0.0595
11190SOL    HW135011   5.460   6.784   7.882  1.5151  0.2833 -0.0342
11190SOL    HW235012   5.491   6.910   7.960 -2.4598  1.1567  0.3243
11191SOL     OW35013   7.316   4.600  11.544  0.1852 -0.3464 -0.7451
11191SOL    HW135014   7.382   4.553  11.594  0.5771  0.7935 -0.1516
11191SOL    HW235015   7.358   4.617  11.459  0.1406 -0.8116 -0.8629
11192SOL     OW35016   0.313   7.271  11.256  0.4644 -0.3995 -0.6460
11192SOL    HW135017   0.287   7.351  11.301  0.0516  0.0216 -1.6171
11192SOL    HW235018   0.239   7.249  11.199  0.1647 -2.0171  0.3017
11193SOL     OW35019   7.009   5.166   7.647  0.0899  0.2142  0.0833
11193SOL    HW135020   6.990   5.159   7.741  2.0098  0.9923  0.5925
11193SOL    HW235021   7.004   5.076   7.615 -0.1579 -0.1315  1.0441
11194SOL     OW35022   4.129   2.225  12.154  0.5722 -0.1735  0.0918
11194SOL    HW135023   4.176   2.231  12.237  2.1788 -3.8510 -0.3649
11194SOL    HW235024   4.184   2.274  12.092 -0.0849  1.6713  0.8793
11195SOL     OW35025   3.440   6.647   7.843  0.5152  0.0746  0.0780
11195SOL    HW135026   3.535   6.656   7.840  0.5018  0.3134  0.3973
11195SOL    HW235027   3.409   6.724   7.891  0.2597 -0.6457  1.0872
11196SOL     OW35028   3.431   1.176   9.490  0.0527 -0.0192 -0.7261
11196SOL    HW135029   3.485   1.115   9.541  1.0650 -1.1172 -2.9545
11196SOL    HW235030   3.480   1.188   9.408 -2.5734 -0.2083 -2.4240
11197SOL     OW35031   7.214   4.263   6.280 -0.3165 -0.5799  0.4302
11197SOL    HW135032   7.195   4.282   6.372 -1.4001 -0.4383  0.1936
11197SOL    HW235033   7.221   4.349   6.239 -0.2814 -0.6431  0.3035
11198SOL     OW35034   1.823   3.257   7.677  0.0295 -0.1293  0.0848
11198SOL    HW135035   1.739   3.293   7.703 -0.5101 -1.0782 -0.2769
11198SOL    HW235036   1.878   3.333   7.660 -0.7872  0.5035  0.2123
11199SOL     OW35037   2.580   4.644   2.917 -0.4010  0.1006  0.4449
11199SOL    HW135038   2.495   4.599   2.919 -0.7448  0.7678  1.4764
11199SOL    HW235039   2.557   4.737   2.911  0.2969  0.2054 -1.0936
11200SOL     OW35040   2.051   6.469   3.847 -0.0863 -0.2082 -0.2156
11200SOL    HW135041   2.140   6.436   3.859  0.9516  1.6476 -2.0554
11200SOL    HW235042   2.040   6.473   3.752 -1.3586  1.4975 -0.0344
11201SOL     OW35043   1.464   0.633   6.382 -0.5338  0.3302  0.3816
11201SOL    HW135044   1.381   0.595   6.355  0.7635 -0.9977 -2.0501
11201SOL    HW235045   1.442   0.690   6.456 -3.6874  0.5772 -0.6261
11202SOL     OW35046   3.437   2.386   3.047 -0.1238 -0.0429  0.4303
11202SOL    HW135047   3.388   2.459   3.085 -0.8335 -0.9102  1.2394
11202SOL    HW235048   3.529   2.408   3.061 -0.2957  1.1836 -0.2907
11203SOL     OW35049   4.910   3.506   4.967 -0.1279  0.8110  0.0393
11203SOL    HW135050   4.822   3.503   4.931 -1.2826 -1.1525  2.7321
11203SOL    HW235051   4.915   3.431   5.026  3.4593  0.7092 -0.1775
11204SOL     OW35052   0.591   0.308   1.598  0.1342 -0.1011  0.2256
11204SOL    HW135053   0.550   0.352   1.523  2.8742  0.1138 -1.2733
11204SOL    HW235054   0.606   0.218   1.567  1.6759  0.1031  0.3016
11205SOL     OW35055   1.851   0.888   4.480 -0.3673  0.2639 -0.1983
11205SOL    HW135056   1.877   0.959   4.539  1.2217  0.1911 -0.7520
11205SOL    HW235057   1.835   0.930   4.396  1.4690 -0.0945 -0.7676
11206SOL     OW35058   5.196   6.112   4.458 -0.2515  0.2961 -0.0230
11206SOL    HW135059   5.124   6.096   4.397  0.0764 -1.1488 -0.0628
11206SOL    HW235060   5.250   6.034   4.452  0.0010  0.2868  1.8325
11207SOL     OW35061   0.493   3.131   8.975 -0.5641  0.3654  0.1282
11207SOL    HW135062   0.411   3.179   8.986  0.2279  1.6350  0.7167
11207SOL    HW235063   0.561   3.198   8.977  0.4183 -0.4881 -1.9933
11208SOL     OW35064   0.047   6.020   2.655  0.3710  0.1681 -0.0538
11208SOL    HW135065   0.022   5.967   2.580  0.8825  0.7934 -0.6714
11208SOL    HW235066   0.110   5.966   2.703  1.0880  0.2985 -0.8194
11209SOL     OW35067   2.708   7.642   7.790 -0.4411 -0.3229 -0.1678
11209SOL    HW135068   2.770   7.706   7.824 -0.4183  0.4247 -1.5532
11209SOL    HW235069   2.675   7.596   7.868  0.7970  0.2180  0.6949
11210SOL     OW35070   4.073   7.543   8.536  0.1110 -0.2829  0.1979
11210SOL    HW135071   4.110   7.458   8.510  0.4432 -1.4505  3.9350
11210SOL    HW235072   3.979   7.532   8.526  0.2117 -0.6808 -0.3818
11211SOL     OW35073   3.438   2.799   3.985 -0.0800 -0.0256  0.2312
11211SOL    HW135074   3.492   2.793   3.907 -0.5147  0.1458 -0.0874
11211SOL    HW235075   3.484   2.861   4.042 -1.1593  2.0897 -1.0584
11212SOL     OW35076   2.158   2.281   9.920 -0.0634 -0.0602  0.2229
11212SOL    HW135077   2.202   2.205   9.960  1.2022 -0.5794 -1.9991
11212SOL    HW235078   2.192   2.356   9.967  0.4233 -0.7130  0.9401
11213SOL     OW35079   5.092   7.109   8.061 -0.0251  0.4342  0.4795
11213SOL    HW135080   5.184   7.112   8.087 -0.4772  0.5753  2.1468
11213SOL    HW235081   5.044   7.142   8.137 -1.2878  3.3639 -1.4314
11214SOL     OW35082   2.916   3.475   2.869 -0.3920  0.1623  0.2024
11214SOL    HW135083   2.940   3.509   2.783 -1.7185  0.3491 -0.1209
11214SOL    HW235084   2.873   3.391   2.850 -4.3866  1.9872  0.2246
11215SOL     OW35085   1.268   1.783  11.713 -0.0297 -0.4057  0.4384
11215SOL    HW135086   1.325   1.729  11.768 -1.2887 -1.9853  0.2595
11215SOL    HW235087   1.316   1.791  11.631  0.1559 -1.3342  0.4408
11216SOL     OW35088   0.459   3.516   9.698  0.6719 -0.5731 -0.2163
11216SOL    HW135089   0.406   3.547   9.771  0.5980 -0.6918 -0.2183
11216SOL    HW235090   0.549   3.520   9.729  0.6036 -1.0834  0.0486
11217SOL     OW35091   5.668   2.057   4.146 -0.0223 -0.3129 -0.7579
11217SOL    HW135092   5.652   2.051   4.240 -1.3191  0.3502 -0.9090
11217SOL    HW235093   5.763   2.057   4.138  0.1097 -0.6998  0.5279
11218SOL     OW35094   5.680   3.822   6.061  0.1043 -0.6213  0.3918
11218SOL    HW135095   5.685   3.904   6.110  0.7335  0.2472 -1.0518
11218SOL    HW235096   5.628   3.763   6.116  0.9233  0.2411  2.1504
11219SOL     OW35097   1.412   3.181   4.413 -0.0603  0.1617 -0.1308
11219SOL    HW135098   1.432   3.214   4.326 -1.2222  2.4812  0.3830
11219SOL    HW235099   1.319   3.201   4.425 -0.0551 -0.5950  1.4262
11220SOL     OW35100   4.572   5.273   7.517 -0.1470 -0.4795  0.0824
11220SOL    HW135101   4.594   5.337   7.586 -0.1536 -0.7961  0.3829
11220SOL    HW235102   4.481   5.294   7.494 -0.2598 -0.5884  0.4153
11221SOL     OW35103   1.643   6.953  10.698  0.0300 -0.4150  0.8193
11221SOL    HW135104   1.640   7.007  10.619 -0.0688 -2.6885 -0.8146
11221SOL    HW235105   1.736   6.945  10.719  0.0861 -0.2407  0.6323
11222SOL     OW35106   0.737   1.839   4.189 -0.1316 -0.0685 -0.2050
11222SOL    HW135107   0.790   1.873   4.261  1.8559 -0.3557 -1.4412
11222SOL    HW235108   0.799   1.826   4.118 -1.9618 -0.1196 -1.8838
11223SOL     OW35109   1.925   0.575   2.224  0.1105  0.0125  0.2194
11223SOL    HW135110   1.987   0.604   2.157 -0.2417  1.3189  0.4276
11223SOL    HW235111   1.889   0.657   2.260 -1.5524 -0.6907  0.2600
11224SOL     OW35112   2.654   0.400  12.335  0.5025  0.0554 -0.1414
11224SOL    HW135113   2.700   0.419  12.254 -0.5311 -4.6891 -2.1486
11224SOL    HW235114   2.708   0.336  12.380 -0.1927  0.6961  1.7437
11225SOL     OW35115   4.209   0.528   7.207  0.2575 -0.3897 -0.2467
11225SOL    HW135116   4.145   0.599   7.200 -0.6046 -1.1624 -0.4390
11225SOL    HW235117   4.158   0.448   7.193  1.4448 -0.9838 -1.5073
11226SOL     OW35118   1.953   2.057   0.272  0.4761 -0.3224  0.0409
11226SOL    HW135119   1.942   1.966   0.244 -0.6609  0.2220 -1.4130
11226SOL    HW235120   1.989   2.101   0.195  1.2702  0.4319  0.8174
11227SOL     OW35121   5.182   0.249   8.926  0.2569  0.0076 -0.3070
11227SOL    HW135122   5.259   0.274   8.977 -0.6802  1.8571  0.2946
11227SOL    HW235123   5.113   0.236   8.991 -1.2632  3.4643 -0.9686
11228SOL     OW35124   0.555   4.371   9.590 -0.4216 -0.0099  0.3382
11228SOL    HW135125   0.580   4.454   9.549  2.0845 -1.7098 -1.9081
11228SOL    HW235126   0.533   4.395   9.680 -1.3504  3.2638 -0.6183
11229SOL     OW35127   5.587   4.267   1.992  0.2478 -0.5135  0.6086
11229SOL    HW135128   5.583   4.253   2.086 -1.8836 -1.7539  0.3871
11229SOL    HW235129   5.627   4.188   1.957 -0.4140 -0.7432  0.3556
11230SOL     OW35130   3.832   0.337   3.283 -0.2024 -0.1007 -0.2439
11230SOL    HW135131   3.868   0.423   3.261  0.1493 -0.1457  0.1522
11230SOL    HW235132   3.767   0.354   3.351  0.3159 -0.2207  0.2809
11231SOL     OW35133   4.416   0.606   5.756 -0.3938  0.4305  0.4691
11231SOL    HW135134   4.402   0.687   5.805 -1.3611  1.4489 -1.3831
11231SOL    HW235135   4.484   0.628   5.692 -0.5978 -0.2454  0.0094
11232SOL     OW35136   0.426   7.066   5.353  0.2853  0.3741  0.4777
11232SOL    HW135137   0.332   7.050   5.347  0.2065  1.2398 -1.2941
11232SOL    HW235138   0.466   6.996   5.302  0.9442 -2.1007  4.0538
11233SOL     OW35139   6.180   0.878   1.837  0.7960  0.6082  0.2190
11233SOL    HW135140   6.238   0.808   1.805  0.8256  0.2204  1.0867
11233SOL    HW235141   6.162   0.932   1.760 -0.4378 -1.1944 -0.8436
11234SOL     OW35142   6.562   7.736   7.791 -0.2211  0.2369 -0.4071
11234SOL    HW135143   6.635   7.680   7.764 -0.1862 -0.1537  0.4765
11234SOL    HW235144   6.601   7.800   7.850 -0.5362  0.2318 -0.1928
11235SOL     OW35145   0.249   0.071   6.306 -0.7482  0.5494 -0.4307
11235SOL    HW135146   0.198   0.107   6.379  0.7555  1.6184  0.1391
11235SOL    HW235147   0.277   0.148   6.256 -0.7973 -0.1055 -1.4980
11236SOL     OW35148   0.769   2.433   1.765  0.1382  0.4252 -0.5276
11236SOL    HW135149   0.676   2.418   1.780 -0.1007  1.3061 -1.0184
11236SOL    HW235150   0.809   2.346   1.764 -0.7096  0.0330 -0.5056
11237SOL     OW35151   0.160   5.617   1.106  0.7020  0.4058 -0.2365
11237SOL    HW135152   0.256   5.614   1.102  0.7295 -1.8153  0.8523
11237SOL    HW235153   0.132   5.532   1.073 -0.8594  0.6513  0.3951
11238SOL     OW35154   3.752   1.858   5.373  0.1039  0.0449 -0.2455
11238SOL    HW135155   3.809   1.808   5.432  0.7888 -0.2561 -1.1390
11238SOL    HW235156   3.682   1.891   5.429  1.4584  0.8967  0.9929
11239SOL     OW35157   4.626   7.898  10.280  0.5920  0.3042  0.1130
11239SOL    HW135158   4.678   7.957  10.225  1.5049 -0.5016  0.0981
11239SOL    HW235159   4.674   7.815  10.279 -0.3510 -0.2594  0.6408
11240SOL     OW35160   4.837   4.941   5.718 -0.2534  0.0002  0.2909
11240SOL    HW135161   4.903   4.930   5.786 -1.5450  1.2373  1.8023
11240SOL    HW235162   4.871   5.012   5.664 -0.2263  0.4442  0.8915
11241SOL     OW35163   0.882   5.810   7.593 -0.5014 -0.0884 -0.1411
11241SOL    HW135164   0.831   5.789   7.672  0.9165 -0.0462  0.8283
11241SOL    HW235165   0.924   5.894   7.614  0.3672 -0.3762 -0.7086
11242SOL     OW35166   7.884   1.095  10.285 -0.0535  0.2386 -0.0027
11242SOL    HW135167   7.914   1.115  10.374  1.0244 -1.7137  0.1395
11242SOL    HW235168   7.876   1.000  10.284  2.4771 -0.0875 -2.6996
11243SOL     OW35169   2.473   2.118   6.964  0.0788 -0.0375 -0.5867
11243SOL    HW135170   2.429   2.056   6.905 -2.3400  2.1304 -1.2357
11243SOL    HW235171   2.439   2.203   6.939  1.4846  1.3498  1.8475
11244SOL     OW35172   5.345   0.421  12.116 -0.7795 -0.1596  0.5750
11244SOL    HW135173   5.373   0.388  12.031 -4.4569 -0.3202 -0.7249
11244SOL    HW235174   5.383   0.509  12.122  0.9511 -0.8042 -0.3771
11245SOL     OW35175   5.080   6.848  11.734 -0.6359 -0.0044 -0.1788
11245SOL    HW135176   5.052   6.784  11.800 -1.8214 -2.1963 -2.6160
11245SOL    HW235177   5.163   6.882  11.767 -1.4791 -0.4923  2.6937
11246SOL     OW35178   4.038   7.074   6.717  0.3110 -0.1034 -0.0274
11246SOL    HW135179   3.998   7.126   6.647 -0.7030 -2.2345 -1.1101
11246SOL    HW235180   3.964   7.031   6.761  1.1417 -1.1080  0.4362
11247SOL     OW35181   7.819   6.571   5.748  0.4039 -0.3303 -0.0085
11247SOL    HW135182   7.857   6.655   5.776  0.6620 -0.4062 -0.1248
11247SOL    HW235183   7.725   6.587   5.744  0.4786  0.0515 -0.3566
11248SOL     OW35184   2.237   1.114   6.383  0.1819 -0.1456  0.1347
11248SOL    HW135185   2.328   1.098   6.406 -0.1797 -0.8583  1.1323
11248SOL    HW235186   2.229   1.209   6.381  0.9222 -0.0776  0.1277
11249SOL     OW35187   2.220   1.631   3.528 -0.3519  0.0175 -0.2219
11249SOL    HW135188   2.141   1.685   3.521  1.2735  2.5858 -0.0142
11249SOL    HW235189   2.249   1.642   3.618  0.6921 -0.1980 -0.5223
11250SOL     OW35190   6.845   7.360   3.883 -0.0235  0.1228  0.3313
11250SOL    HW135191   6.843   7.337   3.976 -1.1710 -0.0105  0.2913
11250SOL    HW235192   6.835   7.276   3.837 -0.8495  0.3222  0.1251
11251SOL     OW35193   6.874   2.264   9.980  0.0278 -0.4226 -0.2359
11251SOL    HW135194   6.783   2.261   9.951 -0.1546 -0.2040  0.2899
11251SOL    HW235195   6.908   2.345   9.942 -0.4855  0.3575  0.9163
11252SOL     OW35196   2.876   4.020   1.558 -0.7219  0.2469  0.4196
11252SOL    HW135197   2.874   3.984   1.647  0.1770  0.9462  0.7372
11252SOL    HW235198   2.886   4.114   1.571 -3.4930  0.7538 -0.3826
11253SOL     OW35199   4.788   4.940   9.665  0.4453  0.4916  0.2645
11253SOL    HW135200   4.758   4.883   9.594 -0.0736  0.8814  0.1663
11253SOL    HW235201   4.728   4.923   9.737 -1.2577  2.6350 -0.5362
11254SOL     OW35202   4.817   2.473   5.176  0.2935  0.3281 -0.3992
11254SOL    HW135203   4.723   2.487   5.186  0.2819 -0.9186  1.6931
11254SOL    HW235204   4.856   2.559   5.193 -0.4622  1.0718 -2.1835
11255SOL     OW35205   0.593   7.902  12.057  0.5357  0.7189  0.3029
11255SOL    HW135206   0.518   7.851  12.087  0.8350  0.3039  0.3542
11255SOL    HW235207   0.669   7.847  12.078  0.8572  1.1666  0.3209
11256SOL     OW35208   6.685   1.181  12.386 -0.3112  0.3643  0.5339
11256SOL    HW135209   6.721   1.256  12.433  0.8177 -1.0246  1.9585
11256SOL    HW235210   6.605   1.159  12.434  0.1693 -0.2747  1.0485
11257SOL     OW35211   0.469   0.682   1.177 -0.2731  0.2846 -0.0719
11257SOL    HW135212   0.410   0.661   1.104  1.0036 -0.6201 -0.8848
11257SOL    HW235213   0.552   0.703   1.136  0.7653 -1.2194  1.1154
11258SOL     OW35214   5.570   2.142   2.262  0.3129 -0.1717 -0.3280
11258SOL    HW135215   5.555   2.097   2.179 -0.2353 -1.5071  0.4605
11258SOL    HW235216   5.604   2.228   2.237 -1.3738  0.0776 -1.9813
11259SOL     OW35217   4.477   5.486  10.489 -0.3122  0.1464 -0.2030
11259SOL    HW135218   4.549   5.424  10.485  1.2148  1.8549 -0.7581
11259SOL    HW235219   4.409   5.448  10.434  0.3762 -1.2222 -0.1529
11260SOL     OW35220   5.671   2.333  12.157 -0.0933  0.4300 -0.4129
11260SOL    HW135221   5.598   2.359  12.212  0.2065 -0.2393  0.3232
11260SOL    HW235222   5.668   2.237  12.156  0.9395  0.3735 -0.1115
11261SOL     OW35223   7.809   3.114  11.014  0.1543  0.0816  0.1263
11261SOL    HW135224   7.831   3.035  11.062 -0.4770 -0.1644  0.0164
11261SOL    HW235225   7.845   3.185  11.067  2.3943 -0.3508 -0.7034
11262SOL     OW35226   4.635   5.423   1.266  0.3194  0.8666  0.1946
11262SOL    HW135227   4.544   5.445   1.287  0.0544  1.0170 -1.0135
11262SOL    HW235228   4.631   5.387   1.177  1.1525 -1.2569  0.9594
11263SOL     OW35229   5.524   1.049   5.608 -0.2659  0.3404  0.5813
11263SOL    HW135230   5.593   1.077   5.548  1.2437 -2.4081  0.8925
11263SOL    HW235231   5.552   1.081   5.693 -0.7343  1.3876  0.3698
11264SOL     OW35232   2.282   6.739   1.337  0.0398  0.1804 -0.2859
11264SOL    HW135233   2.305   6.763   1.427  0.9659  1.1648 -0.7640
11264SOL    HW235234   2.225   6.663   1.347  1.9812 -1.1895  1.0612
11265SOL     OW35235   4.524   5.138   6.250 -0.2347 -0.0685  0.5387
11265SOL    HW135236   4.494   5.047   6.239  1.3323 -0.3493 -2.3301
11265SOL    HW235237   4.485   5.185   6.177  0.9298  1.0246  0.5971
11266SOL     OW35238   5.338   2.227   3.521  0.8698  0.5293 -0.2169
11266SOL    HW135239   5.361   2.169   3.448 -1.3853 -2.1186  0.9915
11266SOL    HW235240   5.418   2.234   3.573  1.5792 -0.3053 -1.1769
11267SOL     OW35241   7.372   1.683   4.405  0.1008 -0.6081  0.0881
11267SOL    HW135242   7.285   1.722   4.413 -0.0183 -0.9765  0.6163
11267SOL    HW235243   7.431   1.749   4.441 -0.0754 -0.7915  0.7329
11268SOL     OW35244   1.504   7.305   8.821  0.1811 -0.2097  0.0115
11268SOL    HW135245   1.417   7.329   8.855  0.1587  0.6506 -0.6261
11268SOL    HW235246   1.499   7.211   8.808 -1.0519 -0.0184 -1.0933
11269SOL     OW35247   0.262   3.359   3.557 -0.3372 -0.2741 -0.7873
11269SOL    HW135248   0.197   3.312   3.609 -0.8192  0.2154 -0.9384
11269SOL    HW235249   0.303   3.419   3.619  1.5239 -2.0583 -0.1548
11270SOL     OW35250   1.987   3.182   6.109 -0.2728  0.5401  0.1349
11270SOL    HW135251   1.962   3.259   6.161  2.4363 -0.1116  2.6564
11270SOL    HW235252   2.044   3.217   6.040 -2.1029  1.1447 -1.1510
11271SOL     OW35253   7.668   6.817   9.012  0.1823  0.0415 -0.0629
11271SOL    HW135254   7.689   6.743   9.068  1.9655  0.5767  0.0383
11271SOL    HW235255   7.589   6.855   9.050 -1.0107 -2.0043 -0.3473
11272SOL     OW35256   1.183   7.976   7.091 -0.0640  0.5503  0.9163
11272SOL    HW135257   1.132   8.002   7.015  1.0368 -0.2736 -0.1418
11272SOL    HW235258   1.126   7.995   7.166 -0.6686  2.6152  0.0104
11273SOL     OW35259   1.281   3.290   3.098  0.0482 -0.6695  0.3247
11273SOL    HW135260   1.353   3.320   3.043 -0.5882 -2.5446 -1.6959
11273SOL    HW235261   1.221   3.364   3.101  0.4577 -0.2542 -0.9071
11274SOL     OW35262   1.275   3.229   0.015  0.1095  0.5215  0.4802
11274SOL    HW135263   1.222   3.173   0.072  0.3877  0.3143  0.5325
11274SOL    HW235264   1.255   3.318   0.046  0.7684  0.3823  1.3561
11275SOL     OW35265   2.478   4.988   4.611 -0.4181  0.1689 -0.1287
11275SOL    HW135266   2.438   5.022   4.531 -1.9772 -2.9841 -0.8550
11275SOL    HW235267   2.572   4.986   4.591 -0.6497  0.6455 -1.3891
11276SOL     OW35268   6.493   2.830  11.359 -0.6692  0.7941  0.0852
11276SOL    HW135269   6.468   2.755  11.305  0.3342 -1.3389  2.3565
11276SOL    HW235270   6.414   2.851  11.409 -0.9261  1.1847 -0.4851
11277SOL     OW35271   4.253   0.943   2.824 -0.4875 -0.2413 -0.4245
11277SOL    HW135272   4.199   0.966   2.900 -2.1822 -1.3021 -1.2314
11277SOL    HW235273   4.343   0.944   2.856 -1.1134 -0.0551  1.4313
11278SOL     OW35274   1.264   4.273   4.620 -0.1657 -0.4154  0.2932
11278SOL    HW135275   1.260   4.293   4.713 -0.1349  0.8407  0.0490
11278SOL    HW235276   1.230   4.184   4.612 -0.0103 -0.5943  1.5117
11279SOL     OW35277   2.459   3.477  12.001 -0.0100  0.3399  0.5320
11279SOL    HW135278   2.540   3.519  12.032  0.1903 -0.4201  1.0764
11279SOL    HW235279   2.389   3.519  12.050  0.2085 -0.0745  1.2179
11280SOL     OW35280   5.149   7.059   1.138 -0.1464  0.5048 -0.0649
11280SOL    HW135281   5.125   7.151   1.130 -2.2790  0.0454  0.3305
11280SOL    HW235282   5.100   7.015   1.068  0.3610 -0.4050  0.1302
11281SOL     OW35283   4.217   1.084   1.799 -0.0984 -0.2228 -0.3582
11281SOL    HW135284   4.309   1.093   1.823 -0.4823  1.0510  0.8086
11281SOL    HW235285   4.171   1.076   1.884 -1.0062 -1.6778 -0.9339
11282SOL     OW35286   3.823   1.215   6.992 -0.3134 -0.0898  0.3702
11282SOL    HW135287   3.883   1.263   6.935  0.5479 -1.8760 -0.2821
11282SOL    HW235288   3.765   1.168   6.932 -0.5622 -0.5646  0.9725
11283SOL     OW35289   0.496   6.706   9.420 -0.5079  0.6684  0.1587
11283SOL    HW135290   0.440   6.754   9.480 -1.1074  0.5672 -0.3125
11283SOL    HW235291   0.583   6.710   9.460 -0.7927  1.0677  0.7501
11284SOL     OW35292   3.654   0.095   6.289  0.2998  0.5669 -0.2327
11284SOL    HW135293   3.559   0.089   6.279  0.2311  1.1500  0.0250
11284SOL    HW235294   3.686   0.009   6.262 -0.4281 -0.1865  1.1948
11285SOL     OW35295   2.910   5.737   9.313 -0.0567  0.0908  0.2850
11285SOL    HW135296   2.962   5.798   9.367 -0.3875  0.1300  0.5630
11285SOL    HW235297   2.921   5.769   9.224  0.2114  0.2377  0.3685
11286SOL     OW35298   1.142   0.886   8.171  0.3108  0.2284 -0.2136
11286SOL    HW135299   1.064   0.926   8.133  0.6908  0.8571 -0.3492
11286SOL    HW235300   1.165   0.943   8.244  1.6486  1.0671 -1.2412
11287SOL     OW35301   1.865   6.883   5.097 -0.1416 -0.0946 -0.1147
11287SOL    HW135302   1.930   6.935   5.143 -1.4841  1.5761  0.0245
11287SOL    HW235303   1.884   6.897   5.004 -1.3715  1.9820 -0.1246
11288SOL     OW35304   0.840   3.598   5.637 -0.7063 -0.3545 -0.0124
11288SOL    HW135305   0.857   3.512   5.676  1.6201  0.5294  1.1204
11288SOL    HW235306   0.911   3.611   5.575 -0.6124  1.0282  0.3510
11289SOL     OW35307   3.194   0.373   8.948 -0.1243 -0.2651 -0.2817
11289SOL    HW135308   3.126   0.388   9.014  1.7259  0.9807  1.4469
11289SOL    HW235309   3.146   0.343   8.871 -2.4340 -1.2953  1.4443
11290SOL     OW35310   0.082   2.482   9.180  0.1166 -0.0657 -0.1561
11290SOL    HW135311   0.082   2.473   9.275 -1.2490 -0.0462 -0.1343
11290SOL    HW235312   0.146   2.551   9.163 -0.5075  0.7922  0.8540
11291SOL     OW35313   4.596   7.287   5.729  0.0032  0.1589  0.2399
11291SOL    HW135314   4.682   7.280   5.769 -0.2203  2.8151  1.3697
11291SOL    HW235315   4.608   7.254   5.640  1.9012 -0.5178  0.7093
11292SOL     OW35316   3.524   2.475   2.764  0.2146  0.3330 -0.1738
11292SOL    HW135317   3.588   2.499   2.697 -0.0853  0.8166 -0.2958
11292SOL    HW235318   3.552   2.522   2.842  0.7013 -0.4189  0.1164
11293SOL     OW35319   2.386   5.440   7.816 -0.0947  0.0559  0.6778
11293SOL    HW135320   2.445   5.458   7.743  0.0827 -0.4655  0.6910
11293SOL    HW235321   2.435   5.381   7.873 -0.3548  0.2012  1.0541
11294SOL     OW35322   1.370   5.454  10.825  0.0931 -0.1046  0.1746
11294SOL    HW135323   1.411   5.430  10.908  1.0618  1.1450  0.0779
11294SOL    HW235324   1.276   5.447  10.841  0.2845 -1.5630  0.8423
11295SOL     OW35325   7.501   3.439  10.011  0.0184 -0.0455  0.2595
11295SOL    HW135326   7.568   3.422  10.077 -0.1820  0.4747  0.6083
11295SOL    HW235327   7.421   3.401  10.047  0.0537 -0.3684 -0.0009
11296SOL     OW35328   6.874   6.445   5.340  0.7149 -0.1141 -0.2125
11296SOL    HW135329   6.845   6.388   5.269  1.2800  0.1446 -0.6683
11296SOL    HW235330   6.801   6.446   5.402 -0.4814  0.9278 -1.5536
11297SOL     OW35331   5.140   4.772   0.666 -0.3779  0.3678  0.2445
11297SOL    HW135332   5.197   4.799   0.738 -0.2701  1.0051 -0.0658
11297SOL    HW235333   5.101   4.854   0.635  0.9030  0.3690 -1.5289
11298SOL     OW35334   0.006   7.113   8.894  0.5650  1.0255 -0.4912
11298SOL    HW135335   0.007   7.037   8.837 -2.6454  0.9873 -0.6684
11298SOL    HW235336  -0.026   7.184   8.839  3.0626  2.4912 -0.2050
11299SOL     OW35337   5.661   5.446  10.584  0.3080  0.0808  0.6429
11299SOL    HW135338   5.575   5.440  10.541  0.4944  0.2360  0.2471
11299SOL    HW235339   5.702   5.361  10.568  1.2239  0.8320 -1.3071
11300SOL     OW35340   7.524   7.955   5.735 -0.2923 -0.7156 -0.2028
11300SOL    HW135341   7.504   8.020   5.668  1.8102  0.1151 -0.1202
11300SOL    HW235342   7.592   7.996   5.788 -0.3223 -2.2276  1.0803
11301SOL     OW35343   1.991   5.087  11.344 -0.3074 -0.4125  0.3234
11301SOL    HW135344   2.013   5.121  11.257  0.4138  0.0870  0.6898
11301SOL    HW235345   1.922   5.145  11.376  0.8974  0.7181  0.9323
11302SOL     OW35346   0.530   5.258   7.962  0.0102  0.1682  0.1277
11302SOL    HW135347   0.568   5.195   8.023 -1.3262 -0.5775  0.2218
11302SOL    HW235348   0.568   5.342   7.987  0.1448 -0.2577  1.4231
11303SOL     OW35349   5.718   7.165   8.827  0.0920 -0.4540 -0.1542
11303SOL    HW135350   5.657   7.172   8.901  0.6489  0.2588  0.2560
11303SOL    HW235351   5.804   7.156   8.868  0.4654  0.4797 -0.6997
11304SOL     OW35352   4.950   2.329   5.582 -0.6572 -0.3416 -0.3810
11304SOL    HW135353   4.999   2.405   5.551  2.7077 -1.7985  0.9131
11304SOL    HW235354   4.935   2.276   5.503  0.6751 -0.2559 -0.7027
11305SOL     OW35355   2.378   3.582   2.373 -0.7221 -0.7883  0.0505
11305SOL    HW135356   2.395   3.621   2.287  1.0001 -1.3871  0.0856
11305SOL    HW235357   2.290   3.612   2.396 -1.2632 -0.6634 -1.9540
11306SOL     OW35358   6.662   7.404   6.068 -0.1388 -0.2052 -0.6270
11306SOL    HW135359   6.634   7.464   5.999 -0.7982 -0.8212 -0.9052
11306SOL    HW235360   6.689   7.461   6.139 -0.8946  0.4351 -0.8341
11307SOL     OW35361   5.415   7.805   4.076  0.5800 -0.0668 -0.2469
11307SOL    HW135362   5.388   7.790   3.986  0.9548 -0.9341 -0.2262
11307SOL    HW235363   5.378   7.731   4.124 -0.5416  0.9445  0.5114
11308SOL     OW35364   3.404   1.385   4.313  0.6489 -0.2465 -0.0733
11308SOL    HW135365   3.314   1.389   4.283  1.2245 -1.3059 -2.0790
11308SOL    HW235366   3.398   1.400   4.408 -1.5943 -0.2235 -0.1630
11309SOL     OW35367   6.108   5.988  11.500 -0.1157 -0.3357 -0.0870
11309SOL    HW135368   6.109   6.010  11.593  0.7734 -1.8561  0.3016
11309SOL    HW235369   6.022   5.947  11.486 -0.0842 -0.4929  0.1737
11310SOL     OW35370   5.761   1.590   9.627 -0.1917 -0.2247 -0.5364
11310SOL    HW135371   5.829   1.596   9.561  0.4336 -0.9183  0.0337
11310SOL    HW235372   5.682   1.568   9.578 -0.1729  1.2060 -1.2801
11311SOL     OW35373   7.029   4.697   5.441 -0.0299 -0.7131  0.6562
11311SOL    HW135374   7.052   4.738   5.358 -1.6951 -0.2101  0.4140
11311SOL    HW235375   7.097   4.727   5.502  0.8132 -0.5317 -0.3540
11312SOL     OW35376   6.323   6.510  11.362  0.6099 -0.4202 -0.1685
11312SOL    HW135377   6.279   6.590  11.390  1.6442  0.0096  0.2638
11312SOL    HW235378   6.411   6.517  11.398  0.7118 -1.7710 -0.0964
11313SOL     OW35379   6.675   4.438   4.454 -0.0117  0.5184 -0.7913
11313SOL    HW135380   6.651   4.346   4.440  0.1385 -0.3895  3.6189
11313SOL    HW235381   6.595   4.478   4.487  1.0374  0.6806  1.7815
11314SOL     OW35382   2.575   6.390   8.739 -0.1805 -1.0149 -0.6408
11314SOL    HW135383   2.582   6.352   8.826  1.0871  1.9035  0.6582
11314SOL    HW235384   2.487   6.428   8.736  0.4102  0.4795  0.1365
11315SOL     OW35385   2.463   2.313   1.412  0.5268 -0.5720  0.1039
11315SOL    HW135386   2.514   2.295   1.333  1.4859  2.1702 -0.0236
11315SOL    HW235387   2.380   2.268   1.398  1.7842 -2.7420 -1.0129
11316SOL     OW35388   6.039   3.313   9.816  0.2186 -0.3191  0.2245
11316SOL    HW135389   6.086   3.357   9.886  0.7722 -0.8120  0.1674
11316SOL    HW235390   5.975   3.377   9.786  0.4176  0.1248  0.7385
11317SOL     OW35391   1.124   4.761   1.312  0.2655  0.2781  0.7029
11317SOL    HW135392   1.189   4.767   1.242  1.3824  0.1452  1.7085
11317SOL    HW235393   1.157   4.818   1.381 -1.2368  1.0579  0.8338
11318SOL     OW35394   2.725   3.082  10.005 -0.2268  0.3596 -0.2293
11318SOL    HW135395   2.738   3.109  10.096 -1.3435 -1.7353  0.6039
11318SOL    HW235396   2.635   3.050  10.002 -0.6005  1.4242 -2.3842
11319SOL     OW35397   4.847   6.380   6.407 -0.2094  0.7516  0.0370
11319SOL    HW135398   4.864   6.328   6.328 -0.3808  0.4332  0.2084
11319SOL    HW235399   4.928   6.375   6.456 -0.2845  0.4876  0.1397
11320SOL     OW35400   0.600   3.095   1.430 -0.3840  0.0946 -0.2025
11320SOL    HW135401   0.523   3.069   1.379 -0.3372  0.8782 -0.7042
11320SOL    HW235402   0.662   3.024   1.419 -2.0879 -2.0424  2.6724
11321SOL     OW35403   7.902   2.643  11.906  0.4617 -0.3876 -0.1598
11321SOL    HW135404   7.963   2.671  11.975  0.6726  0.8569 -0.8160
11321SOL    HW235405   7.816   2.652  11.945  0.6082 -0.2195  0.1330
11322SOL     OW35406   3.701   4.929   2.260  0.0917 -0.5296  0.0958
11322SOL    HW135407   3.668   4.979   2.185 -0.0687 -0.0499  0.4851
11322SOL    HW235408   3.623   4.886   2.296 -0.3715  1.5685  1.7563
11323SOL     OW35409   5.800   3.024   0.693 -0.1868 -0.1411 -0.3113
11323SOL    HW135410   5.892   3.016   0.716 -0.4885  0.4115  1.1860
11323SOL    HW235411   5.778   3.115   0.710 -0.7276  0.0501 -1.8466
11324SOL     OW35412   4.906   0.878   9.340 -0.1222  0.0928 -0.6468
11324SOL    HW135413   4.829   0.856   9.391 -0.7096  1.6523 -0.7973
11324SOL    HW235414   4.963   0.801   9.346 -1.4753 -0.8932 -0.1465
11325SOL     OW35415   7.866   1.749   3.341 -0.0287 -0.1936 -0.1082
11325SOL    HW135416   7.951   1.704   3.348  0.0822 -0.0386 -0.4445
11325SOL    HW235417   7.881   1.835   3.379 -0.1181 -0.2762  0.1145
11326SOL     OW35418   7.101   3.605   9.170  0.0137 -0.4168 -0.2529
11326SOL    HW135419   7.130   3.640   9.254  0.5906  0.7218 -0.9087
11326SOL    HW235420   7.174   3.619   9.111 -0.2731 -1.4876 -0.8898
11327SOL     OW35421   1.871   0.317   4.003 -1.0909  0.8069 -0.2609
11327SOL    HW135422   1.876   0.255   4.076 -1.6360  0.0434 -0.8553
11327SOL    HW235423   1.844   0.400   4.044 -0.3107  0.6785  0.5455
11328SOL     OW35424   5.690   5.649  10.774  0.1319  0.2669 -0.9578
11328SOL    HW135425   5.617   5.637  10.835 -0.3339  2.7714 -0.9006
11328SOL    HW235426   5.668   5.594  10.699 -0.2390 -1.3774  0.2992
11329SOL     OW35427   2.805   5.940   0.226  0.6815 -0.2796 -0.3712
11329SOL    HW135428   2.900   5.946   0.224  0.7329  0.5235  2.0960
11329SOL    HW235429   2.778   5.992   0.301 -1.6149 -1.6406 -0.1383
11330SOL     OW35430   3.758   7.836   1.566  0.0500  0.1992 -0.5078
11330SOL    HW135431   3.727   7.784   1.493 -2.7148 -1.3980  1.5909
11330SOL    HW235432   3.754   7.926   1.535 -1.5747 -0.3848 -2.1537
11331SOL     OW35433   0.053   6.058  10.234  0.3944  0.5903  0.6090
11331SOL    HW135434  -0.035   6.043  10.198 -0.5605 -3.3486  3.7224
11331SOL    HW235435   0.038   6.114  10.310  0.2380 -0.9599  1.7871
11332SOL     OW35436   0.510   7.176   8.596  0.3935 -0.4800  0.0041
11332SOL    HW135437   0.452   7.248   8.620  0.0150 -0.3414 -1.2300
11332SOL    HW235438   0.502   7.114   8.668 -1.0503 -0.3097  0.0301
11333SOL     OW35439   4.704   2.150   1.903 -0.3349  0.5362  0.0750
11333SOL    HW135440   4.793   2.140   1.870 -0.5909 -2.8817  0.0402
11333SOL    HW235441   4.651   2.165   1.825 -0.1496 -0.8249 -0.3362
11334SOL     OW35442   3.005   3.230   3.154  0.2103  0.9524 -0.4382
11334SOL    HW135443   2.976   3.166   3.090 -1.0961  1.1422 -0.0659
11334SOL    HW235444   3.067   3.286   3.107 -1.2260  1.5011 -1.7507
11335SOL     OW35445   2.006   2.900   9.172 -0.6626 -0.0357 -0.2934
11335SOL    HW135446   1.950   2.823   9.184 -1.1279  0.5869  2.1225
11335SOL    HW235447   1.975   2.940   9.091 -1.2590 -1.7017 -0.9190
11336SOL     OW35448   4.159   1.977   1.931 -0.0498 -0.0856 -0.7149
11336SOL    HW135449   4.102   2.039   1.977  0.5527  0.4693 -0.6908
11336SOL    HW235450   4.135   1.891   1.964  1.5433  0.4049  1.9734
11337SOL     OW35451   5.933   4.550  11.559  0.2973 -0.1555 -0.0298
11337SOL    HW135452   5.884   4.619  11.603  0.2670  1.3294 -2.2220
11337SOL    HW235453   5.869   4.507  11.502  0.7822 -0.5968 -0.2560
11338SOL     OW35454   3.804   3.847   2.044 -0.2081  0.3253 -0.0928
11338SOL    HW135455   3.877   3.790   2.066  0.4026  0.9373 -0.5089
11338SOL    HW235456   3.728   3.789   2.040  0.2390 -0.2985  0.4148
11339SOL     OW35457   6.886   1.549   8.212  0.4175  0.0792  0.0534
11339SOL    HW135458   6.891   1.551   8.116  0.8467  1.0079  0.0882
11339SOL    HW235459   6.882   1.641   8.238 -0.1249 -0.1760  0.9160
11340SOL     OW35460   4.697   4.901   2.183  0.2263  0.3453  0.6269
11340SOL    HW135461   4.648   4.981   2.164 -0.3258 -0.0512  0.3439
11340SOL    HW235462   4.751   4.923   2.259 -0.3369  0.8192  0.8997
11341SOL     OW35463   4.699   2.887   1.059 -0.3923  0.0726 -0.3390
11341SOL    HW135464   4.670   2.806   1.101 -0.7100  1.1698  1.6747
11341SOL    HW235465   4.661   2.883   0.971 -0.9483 -1.6371 -0.0689
11342SOL     OW35466   3.116   7.807   2.740 -0.3363 -0.4553 -0.7320
11342SOL    HW135467   3.081   7.740   2.798 -0.9387 -1.3941 -2.1245
11342SOL    HW235468   3.187   7.848   2.789 -0.9890 -1.0414  0.7405
11343SOL     OW35469   2.555   4.204   0.859  0.0303  0.0209 -0.1093
11343SOL    HW135470   2.532   4.144   0.788 -0.9277  0.7107 -0.3956
11343SOL    HW235471   2.472   4.241   0.887  0.5827  1.0199  0.2422
11344SOL     OW35472   3.921   1.690   3.954 -0.3662 -0.1315  0.3065
11344SOL    HW135473   3.953   1.748   3.885 -0.9296  1.2211  1.1343
11344SOL    HW235474   3.847   1.643   3.915 -0.2601  0.1321 -0.2067
11345SOL     OW35475   2.963   5.963   6.113  0.5515  0.3152  0.3040
11345SOL    HW135476   3.021   5.906   6.062  2.6606  1.7676  0.9601
11345SOL    HW235477   2.972   6.049   6.072 -2.0084  0.4241 -0.2049
11346SOL     OW35478   5.447   3.463   0.234  0.4235 -0.1547 -0.1868
11346SOL    HW135479   5.423   3.374   0.259 -0.2907  0.0674 -0.0510
11346SOL    HW235480   5.519   3.452   0.172 -0.3660 -0.8803 -1.0051
11347SOL     OW35481   5.783   2.389   6.743  0.1361 -0.3422 -0.6080
11347SOL    HW135482   5.831   2.421   6.667  0.7135  1.2647  0.3829
11347SOL    HW235483   5.701   2.438   6.743 -0.2699 -1.0092 -0.7042
11348SOL     OW35484   7.520   4.235  10.613 -0.0449  0.2404  0.1046
11348SOL    HW135485   7.535   4.290  10.536 -1.0121 -0.7745 -0.8606
11348SOL    HW235486   7.576   4.158  10.599 -0.5015 -0.1197  0.2144
11349SOL     OW35487   5.994   6.478   0.348 -0.6366  0.0643  0.3608
11349SOL    HW135488   6.074   6.531   0.359 -1.1320  0.8565  0.2419
11349SOL    HW235489   5.981   6.437   0.433 -0.1390 -0.0128  0.4024
11350SOL     OW35490   2.311   4.833   1.413  0.1790 -0.3029  0.6729
11350SOL    HW135491   2.248   4.845   1.342 -0.7027 -0.4621  1.4128
11350SOL    HW235492   2.396   4.823   1.368 -0.0936  1.2902 -0.2755
11351SOL     OW35493   6.939   6.006   8.268 -0.5169  0.1630 -0.5906
11351SOL    HW135494   7.019   6.057   8.257 -0.2273 -0.3425 -0.8564
11351SOL    HW235495   6.871   6.071   8.284  0.1371  0.5501  0.8158
11352SOL     OW35496   7.947   4.454   5.079 -0.3018 -0.3851  0.5025
11352SOL    HW135497   7.922   4.456   4.986  1.0767 -1.7838  0.0401
11352SOL    HW235498   8.042   4.469   5.078 -0.4262  0.6432  1.7983
11353SOL     OW35499   5.540   7.738   8.746  0.5248 -0.0382  0.0989
11353SOL    HW135500   5.450   7.717   8.720  0.0309 -2.1945  3.0479
11353SOL    HW235501   5.594   7.695   8.680 -0.5831  0.3923 -1.1331
11354SOL     OW35502   6.367   0.830   0.369 -0.0611  0.1899 -1.3323
11354SOL    HW135503   6.313   0.909   0.367  0.3523  0.4647 -1.6470
11354SOL    HW235504   6.309   0.764   0.407  0.0117  0.9468  0.1619
11355SOL     OW35505   4.475   3.523   1.102  0.6849 -0.4178  0.0751
11355SOL    HW135506   4.440   3.612   1.096 -2.0784 -1.3019  1.1672
11355SOL    HW235507   4.551   3.531   1.158  0.4375  1.2551  0.2331
11356SOL     OW35508   5.487   4.687   7.197  0.0561  0.2255  0.4277
11356SOL    HW135509   5.407   4.724   7.160  0.4667  1.2412  0.5051
11356SOL    HW235510   5.553   4.701   7.129  0.8421  2.1888  1.5118
11357SOL     OW35511   5.250   1.865  10.443 -0.0742 -0.4071 -0.1386
11357SOL    HW135512   5.236   1.955  10.414  0.2307 -0.6631 -1.1147
11357SOL    HW235513   5.328   1.836  10.394 -0.9536 -1.6360 -0.8712
11358SOL     OW35514   6.097   5.468  10.616  0.1864 -0.2214  0.1354
11358SOL    HW135515   6.014   5.462  10.664 -0.1043 -1.4808 -0.4692
11358SOL    HW235516   6.163   5.439  10.680  0.1768  0.8302  0.6339
11359SOL     OW35517   1.917   5.330   3.724 -0.2037  0.4089 -0.1224
11359SOL    HW135518   1.980   5.313   3.654  1.0294 -2.2454  1.4353
11359SOL    HW235519   1.838   5.285   3.696 -0.4953  1.3201 -0.8058
11360SOL     OW35520   5.228   1.116   0.446  0.0340 -0.0894  0.0165
11360SOL    HW135521   5.207   1.209   0.446  0.2942 -0.0245  0.7426
11360SOL    HW235522   5.149   1.074   0.411 -1.2456  0.1880  2.3376
11361SOL     OW35523   7.961   2.315   4.327  0.3856 -0.8446  0.3110
11361SOL    HW135524   8.008   2.331   4.245 -1.3286 -0.3590 -0.6432
11361SOL    HW235525   7.940   2.221   4.324 -1.9240 -0.3548 -1.1509
11362SOL     OW35526   2.318   3.927   4.990 -0.2578  0.1105  0.1574
11362SOL    HW135527   2.387   3.952   5.052 -0.3072 -0.6879  0.5545
11362SOL    HW235528   2.239   3.970   5.022  0.3665  2.6257 -1.3742
11363SOL     OW35529   1.187   1.982   3.366 -0.3487  0.7218 -0.6533
11363SOL    HW135530   1.166   2.069   3.331 -0.2618  0.5083 -1.2525
11363SOL    HW235531   1.123   1.923   3.324  0.0099  0.4025 -0.7545
11364SOL     OW35532   1.165   0.848   4.439 -0.2079  0.2460 -0.1926
11364SOL    HW135533   1.235   0.900   4.400 -0.7788  1.7062  0.6481
11364SOL    HW235534   1.094   0.853   4.376 -0.1902  0.3277 -0.2069
11365SOL     OW35535   5.705   7.464   0.086 -0.0435  0.4848 -0.5047
11365SOL    HW135536   5.631   7.476   0.146  0.8574  0.9947  0.5391
11365SOL    HW235537   5.783   7.477   0.140  0.8937 -1.7805 -1.1550
11366SOL     OW35538   5.079   4.993  10.052 -0.3052  0.1470 -0.0949
11366SOL    HW135539   5.164   5.035  10.055 -0.6911  1.2038 -2.1814
11366SOL    HW235540   5.022   5.049  10.104  0.1257 -0.2998  0.8935
11367SOL     OW35541   0.315   4.871   0.022 -0.5035 -0.2801  0.4691
11367SOL    HW135542   0.376   4.900   0.090 -1.5875  2.8055  0.3118
11367SOL    HW235543   0.368   4.824  -0.041  1.1841 -0.0904  1.6908
11368SOL     OW35544   7.766   5.472   6.176 -0.4288 -0.2087  0.4564
11368SOL    HW135545   7.733   5.415   6.106 -1.0664 -1.8310  2.0133
11368SOL    HW235546   7.860   5.478   6.159 -0.8129  1.0412 -1.6279
11369SOL     OW35547   4.653   0.557   8.209 -0.1656 -0.1470 -0.5579
11369SOL    HW135548   4.668   0.486   8.147  0.8154 -1.2496  0.8771
11369SOL    HW235549   4.633   0.512   8.292 -1.2677  1.2692 -0.0133
11370SOL     OW35550   4.246   2.287   8.159  0.0691  0.0688  0.4484
11370SOL    HW135551   4.251   2.240   8.242  2.1867 -0.7524 -0.0646
11370SOL    HW235552   4.331   2.271   8.117  0.3455  3.1573 -0.4175
11371SOL     OW35553   7.750   1.781   0.252 -0.1699 -0.1646 -0.1205
11371SOL    HW135554   7.687   1.851   0.271 -2.4104 -1.2393 -2.9056
11371SOL    HW235555   7.701   1.719   0.198  2.3613 -2.8383  0.4375
11372SOL     OW35556   1.610   3.791   5.584 -0.3599 -0.0988  0.3027
11372SOL    HW135557   1.690   3.766   5.537 -0.9279 -1.4390  0.0235
11372SOL    HW235558   1.554   3.830   5.517 -0.7051 -0.9447  0.0887
11373SOL     OW35559   7.941   4.293   0.505  0.4707  0.1950 -0.2738
11373SOL    HW135560   7.982   4.257   0.426 -0.6085 -0.1898 -0.6846
11373SOL    HW235561   7.860   4.243   0.514 -0.2637  1.4204  0.0883
11374SOL     OW35562   1.990   6.687   7.724  0.8736 -0.2875  0.2415
11374SOL    HW135563   2.046   6.664   7.798  2.3362  1.8323 -0.1060
11374SOL    HW235564   2.040   6.661   7.647 -0.1797 -1.5059 -0.0632
11375SOL     OW35565   5.831   5.904   0.664 -0.6181 -0.3114 -0.3098
11375SOL    HW135566   5.866   5.896   0.753 -1.3931 -1.9902 -0.1207
11375SOL    HW235567   5.868   5.986   0.631  0.0867  0.0880  1.3729
11376SOL     OW35568   1.288   7.346   5.462  0.8404  0.0416 -0.2036
11376SOL    HW135569   1.211   7.352   5.518  1.1819  0.2265  0.2494
11376SOL    HW235570   1.280   7.261   5.419 -0.8405  1.0129 -1.9683
11377SOL     OW35571   1.376   5.705  10.034  0.3030 -0.2536 -0.4964
11377SOL    HW135572   1.445   5.746  10.085 -0.9086  0.4463  0.6459
11377SOL    HW235573   1.324   5.779  10.000  0.6266 -0.7254 -2.1405
11378SOL     OW35574   5.891   3.735   6.534  0.1846  0.4725 -0.2883
11378SOL    HW135575   5.957   3.714   6.600  0.3791  0.9242 -0.3352
11378SOL    HW235576   5.917   3.821   6.500 -1.3963  1.4896  0.9340
11379SOL     OW35577   1.941   0.557   8.586 -0.6145  0.1497 -0.3147
11379SOL    HW135578   1.937   0.621   8.657 -0.5919 -1.5294  1.2722
11379SOL    HW235579   1.852   0.556   8.549 -0.3997  1.6613 -0.9198
11380SOL     OW35580   7.203   2.612   4.143  0.4371 -0.1603  0.4347
11380SOL    HW135581   7.155   2.692   4.125 -0.8985 -0.5431  2.0286
11380SOL    HW235582   7.207   2.567   4.059 -0.4512  0.7194 -0.1004
11381SOL     OW35583   0.210   3.090  12.028  0.1432  0.0167  0.2922
11381SOL    HW135584   0.123   3.060  12.055 -0.0130  0.7117  0.5751
11381SOL    HW235585   0.193   3.158  11.963  0.4622  0.6783  0.8943
11382SOL     OW35586   2.651   3.268   5.153  0.2453 -0.7421  0.7519
11382SOL    HW135587   2.680   3.356   5.126 -1.7067  0.1837  1.4816
11382SOL    HW235588   2.620   3.280   5.243  0.6944 -2.3937  1.1650
11383SOL     OW35589   3.750   6.655   3.292  0.1984 -0.3076  0.2832
11383SOL    HW135590   3.684   6.654   3.362  0.5303 -0.7173  0.5936
11383SOL    HW235591   3.823   6.704   3.329 -0.3786  1.1985 -0.4885
11384SOL     OW35592   5.110   7.752  12.237 -0.0189  0.5610  0.6151
11384SOL    HW135593   5.159   7.784  12.313 -0.1346  0.1475  0.8653
11384SOL    HW235594   5.118   7.822  12.172  0.6496  0.6280  0.7638
11385SOL     OW35595   7.913   3.246   2.813 -0.1516  0.3826  0.4917
11385SOL    HW135596   7.934   3.333   2.847  1.9561  0.0805  0.0771
11385SOL    HW235597   7.960   3.241   2.730 -0.3758 -1.0897  0.4350
11386SOL     OW35598   7.765   4.451   6.664  0.4294  0.2581  0.7592
11386SOL    HW135599   7.795   4.460   6.574  0.1537  0.4222  0.6808
11386SOL    HW235600   7.753   4.357   6.677 -1.5296  0.3589 -0.0534
11387SOL     OW35601   6.923   1.945   9.222  0.1544  0.4796 -0.1532
11387SOL    HW135602   6.880   1.860   9.208 -0.4305  0.6388  0.6118
11387SOL    HW235603   7.013   1.923   9.246 -0.5246 -0.0435  2.1515
11388SOL     OW35604   5.338   1.587   8.971 -0.7906  0.6720  0.3047
11388SOL    HW135605   5.419   1.630   8.945 -1.1959  1.3882  0.1935
11388SOL    HW235606   5.314   1.532   8.897 -0.3205  0.3191  0.4093
11389SOL     OW35607   2.446   5.963   6.767 -0.2670 -0.2540 -0.4118
11389SOL    HW135608   2.354   5.938   6.764 -0.2271 -0.3942 -0.4959
11389SOL    HW235609   2.447   6.049   6.809 -0.2346 -1.1924  1.6062
11390SOL     OW35610   3.275   6.685   2.347 -0.4624  0.5623  0.3994
11390SOL    HW135611   3.181   6.698   2.357 -0.4045  0.1267  1.5960
11390SOL    HW235612   3.292   6.601   2.389  0.0110 -0.8394 -2.3522
11391SOL     OW35613   0.101   0.824  12.249  0.2640 -0.2557  0.1966
11391SOL    HW135614   0.092   0.733  12.222 -0.5074  0.0096 -0.4920
11391SOL    HW235615   0.012   0.851  12.272  0.3665  0.5110 -0.2634
11392SOL     OW35616   2.172   0.040   6.231  0.2054  0.2489  0.1729
11392SOL    HW135617   2.198   0.106   6.295 -0.0313  0.5843 -0.0722
11392SOL    HW235618   2.254   0.006   6.197  0.3864 -1.1785  1.8961
11393SOL     OW35619   6.305   2.062   6.849  0.5743  0.0618 -0.0280
11393SOL    HW135620   6.302   2.097   6.938  1.5470  1.1968 -0.4138
11393SOL    HW235621   6.397   2.040   6.834  0.9098  2.1296 -1.5346
11394SOL     OW35622   7.541   1.557  11.484  0.3350 -0.0401  0.3053
11394SOL    HW135623   7.525   1.635  11.538  1.1559  0.3739 -0.0405
11394SOL    HW235624   7.593   1.499  11.540  2.2338  0.8922 -0.4064
11395SOL     OW35625   0.900   4.942   5.995  0.2087  1.0087 -0.1485
11395SOL    HW135626   0.817   4.981   5.969  0.0847 -0.0141 -1.3805
11395SOL    HW235627   0.965   5.011   5.979 -0.1917  1.2357 -0.8323
11396SOL     OW35628   4.262   0.417   0.527  0.5254 -0.2079 -0.7921
11396SOL    HW135629   4.262   0.362   0.449  0.8277 -1.7586  0.2461
11396SOL    HW235630   4.311   0.495   0.502  0.5379 -0.6360 -2.1674
11397SOL     OW35631   0.239   6.019   2.363 -0.2117 -0.2257  0.0377
11397SOL    HW135632   0.176   5.977   2.422 -0.5200  0.1557 -0.0190
11397SOL    HW235633   0.321   6.018   2.412 -0.0712 -1.4217 -0.1958
11398SOL     OW35634   4.305   7.932   0.824 -0.3597  0.4045 -0.1426
11398SOL    HW135635   4.351   7.926   0.740 -0.8341  0.3378 -0.3974
11398SOL    HW235636   4.233   7.992   0.808  0.2130  1.2990  0.5280
11399SOL     OW35637   5.830   7.774  11.315  0.4338  0.4480  0.4708
11399SOL    HW135638   5.892   7.834  11.356  0.4338  2.0591 -1.7113
11399SOL    HW235639   5.746   7.820  11.318  0.3385  0.4003 -0.8053
11400SOL     OW35640   2.267   7.159   0.418 -0.3332  1.0189  0.1966
11400SOL    HW135641   2.205   7.232   0.409 -2.1415 -0.5643 -0.9212
11400SOL    HW235642   2.237   7.111   0.495  0.1594  0.8102  0.2649
11401SOL     OW35643   5.226   2.159  11.713 -0.3442 -0.4125  0.5361
11401SOL    HW135644   5.245   2.219  11.642 -0.2557 -1.2197 -0.1309
11401SOL    HW235645   5.130   2.152  11.715 -0.3670 -0.0719  0.7752
11402SOL     OW35646   4.198   0.856   3.822  0.1063  0.2731  0.3332
11402SOL    HW135647   4.146   0.935   3.812 -2.6301 -1.1072  2.4477
11402SOL    HW235648   4.256   0.874   3.896 -0.1603  0.4558  0.4974
11403SOL     OW35649   3.490   1.108  11.918 -0.1907 -0.3327  0.7469
11403SOL    HW135650   3.479   1.016  11.896 -0.6852 -0.3741  1.1527
11403SOL    HW235651   3.410   1.150  11.886  0.4726  0.1324 -0.3541
11404SOL     OW35652   5.523   5.280   6.635  0.8793  1.0299 -0.3285
11404SOL    HW135653   5.595   5.257   6.576  0.1903  0.9567 -1.1601
11404SOL    HW235654   5.455   5.314   6.577 -0.9968 -1.7856  0.0329
11405SOL     OW35655   5.852   0.580   3.015  0.3310 -0.3798 -0.1385
11405SOL    HW135656   5.921   0.577   3.081 -0.4201  1.3704  0.7767
11405SOL    HW235657   5.886   0.638   2.947 -0.2314  0.5094  0.3283
11406SOL     OW35658   5.760   2.755   0.554  0.6517  0.4673 -0.1346
11406SOL    HW135659   5.809   2.834   0.577  1.9794  0.0825 -1.4234
11406SOL    HW235660   5.694   2.784   0.491  1.3132  0.5474 -0.8129
11407SOL     OW35661   1.548   5.137   0.363 -0.2736  0.2740 -0.0290
11407SOL    HW135662   1.584   5.054   0.331  0.2005  0.6025 -0.3738
11407SOL    HW235663   1.600   5.157   0.441  0.2597  0.7029 -0.4760
11408SOL     OW35664   7.142   3.755  11.651  0.1958  0.2849 -0.1278
11408SOL    HW135665   7.121   3.707  11.571  0.4247  0.5723 -0.3660
11408SOL    HW235666   7.200   3.698  11.700  0.0364  0.0979 -0.1572
11409SOL     OW35667   5.233   2.358  11.957 -0.0773 -0.3159 -0.1221
11409SOL    HW135668   5.197   2.413  11.888  0.8179 -0.6165 -0.8507
11409SOL    HW235669   5.279   2.288  11.911  2.4533  0.6860  0.6618
11410SOL     OW35670   1.474   2.969  11.796  0.6667  0.0921 -0.4554
11410SOL    HW135671   1.472   3.043  11.735  2.1390  0.2375 -0.3727
11410SOL    HW235672   1.561   2.932  11.785 -0.3451 -2.2154 -1.1436
11411SOL     OW35673   0.443   1.256   0.363 -0.1257 -0.7279  0.1901
11411SOL    HW135674   0.451   1.244   0.268 -3.8083 -0.1502 -0.3282
11411SOL    HW235675   0.506   1.325   0.383  1.1536 -1.2534 -1.6812
11412SOL     OW35676   2.306   2.372   0.375 -0.2626  0.1217  0.0772
11412SOL    HW135677   2.339   2.316   0.305  0.8788  0.6400  0.1865
11412SOL    HW235678   2.283   2.311   0.445 -1.4001 -0.3952 -0.7300
11413SOL     OW35679   4.169   6.920   3.707 -0.4801  0.3905 -0.5124
11413SOL    HW135680   4.111   6.971   3.764  0.7297 -0.6586  1.7996
11413SOL    HW235681   4.231   6.983   3.671 -0.3061  0.8783  0.6098
11414SOL     OW35682   3.445   2.582   6.213  0.1947 -0.3843 -0.3279
11414SOL    HW135683   3.481   2.514   6.269 -1.6684 -0.2091  1.1669
11414SOL    HW235684   3.512   2.595   6.145  2.3856 -0.8368  1.6261
11415SOL     OW35685   6.760   3.608  10.782 -0.2639  0.0331  0.0916
11415SOL    HW135686   6.852   3.626  10.798 -0.3439 -0.0063  0.6222
11415SOL    HW235687   6.733   3.672  10.716  0.3770 -0.5719 -0.7920
11416SOL     OW35688   6.931   0.830   7.581 -0.4285 -0.0810  0.0568
11416SOL    HW135689   6.935   0.904   7.641  0.1324 -0.6945  0.8006
11416SOL    HW235690   7.021   0.798   7.576 -0.4588 -0.0161 -1.1629
11417SOL     OW35691   1.288   5.953  11.967 -0.1742  0.1195  0.2577
11417SOL    HW135692   1.239   5.950  12.050 -1.1060 -0.6548 -0.2897
11417SOL    HW235693   1.325   5.865  11.958 -1.8558 -0.5002 -1.1435
11418SOL     OW35694   4.451   7.561  12.110  0.1545  0.2917 -0.0301
11418SOL    HW135695   4.410   7.491  12.058  0.8593  0.6040 -1.0328
11418SOL    HW235696   4.537   7.526  12.134  0.7307  0.9970 -0.9996
11419SOL     OW35697   3.439   4.409   1.160 -0.4399  0.6064 -0.4889
11419SOL    HW135698   3.415   4.502   1.157  0.6391  1.0309  1.7617
11419SOL    HW235699   3.534   4.408   1.156 -0.4608 -0.4814 -1.2515
11420SOL     OW35700   6.843   6.545   4.125  0.0768 -0.0552 -0.0046
11420SOL    HW135701   6.885   6.481   4.067 -0.2598 -2.0934  1.8483
11420SOL    HW235702   6.749   6.534   4.107 -0.0226 -0.6302  0.8049
11421SOL     OW35703   7.703   2.513   5.149  0.1844  0.5353 -0.2649
11421SOL    HW135704   7.699   2.581   5.081 -1.3450 -0.1711 -0.9386
11421SOL    HW235705   7.613   2.506   5.181  0.3161 -1.1201 -0.1692
11422SOL     OW35706   3.159   0.118   7.012 -0.4752  0.4454 -0.1007
11422SOL    HW135707   3.230   0.060   7.037 -0.7106 -0.5525 -1.6619
11422SOL    HW235708   3.092   0.104   7.079  0.7084  1.3458  1.3478
11423SOL     OW35709   7.342   0.323   1.130 -0.8235  0.1524 -0.4116
11423SOL    HW135710   7.279   0.381   1.172 -0.2482  1.6098 -1.4694
11423SOL    HW235711   7.381   0.272   1.202  0.5802  2.9707  0.9725
11424SOL     OW35712   5.300   7.214   2.459 -0.7840 -0.4398 -0.3295
11424SOL    HW135713   5.227   7.247   2.405 -1.5525 -1.9356 -0.2656
11424SOL    HW235714   5.283   7.250   2.546  0.0173  1.3306 -0.8673
11425SOL     OW35715   0.680   2.898   5.075 -0.3736 -0.3177  0.3432
11425SOL    HW135716   0.740   2.935   5.009 -1.2990 -0.9171 -0.8807
11425SOL    HW235717   0.653   2.974   5.127 -2.7299  1.0277 -2.5052
11426SOL     OW35718   1.441   5.896   3.488 -0.2115  0.3927 -0.5478
11426SOL    HW135719   1.393   5.837   3.429 -0.2683  0.9019 -1.0216
11426SOL    HW235720   1.445   5.979   3.440  0.7007  0.5040 -0.2947
11427SOL     OW35721   2.246   5.340   7.449  0.0755 -0.1426 -0.0754
11427SOL    HW135722   2.287   5.354   7.364  0.8127 -1.4872  0.0279
11427SOL    HW235723   2.316   5.355   7.512 -0.0160 -0.8122  0.1946
11428SOL     OW35724   5.388   1.917   9.633  0.1955  0.8036 -0.3873
11428SOL    HW135725   5.459   1.868   9.674 -0.5899  1.1984  1.5672
11428SOL    HW235726   5.425   2.003   9.615  1.0084  0.1537 -2.0515
11429SOL     OW35727   2.438   7.638   4.890  0.1217  0.4669  0.2620
11429SOL    HW135728   2.443   7.557   4.941  1.7765  0.4339  0.0974
11429SOL    HW235729   2.392   7.699   4.946 -0.5902 -0.3911  0.6449
11430SOL     OW35730   5.491   7.343   7.303  0.3802 -0.2898  0.5060
11430SOL    HW135731   5.456   7.419   7.350  0.9338 -1.4718  3.0055
11430SOL    HW235732   5.421   7.278   7.307  1.3141 -1.2664  1.9865
11431SOL     OW35733   5.539   5.674   0.803  0.0883 -0.3494  0.2352
11431SOL    HW135734   5.571   5.717   0.882 -1.8728  0.1106  0.8247
11431SOL    HW235735   5.534   5.582   0.826  0.1891 -0.3151  0.3975
11432SOL     OW35736   5.232   0.044   2.227 -0.0030  0.7136 -0.2723
11432SOL    HW135737   5.187   0.128   2.237 -0.2982  0.4539  0.7083
11432SOL    HW235738   5.201   0.010   2.143  0.4146  1.7435 -0.8687
11433SOL     OW35739   7.529   3.060   8.595 -0.0202  0.2277  0.4581
11433SOL    HW135740   7.582   3.036   8.671 -0.2584 -1.3578  0.1526
11433SOL    HW235741   7.508   2.977   8.553  0.2175  1.0817 -1.4379
11434SOL     OW35742   2.994   3.097   2.814  0.3136 -0.5210 -0.1556
11434SOL    HW135743   2.971   3.009   2.845 -0.7550  0.0398  0.7547
11434SOL    HW235744   2.910   3.143   2.809  0.8627  0.4780 -0.5406
11435SOL     OW35745   5.159   4.213  12.284  0.3526 -0.1426  0.1035
11435SOL    HW135746   5.173   4.222  12.379  1.0131  1.8893 -0.1291
11435SOL    HW235747   5.238   4.170  12.252  0.2211 -0.6423  0.4336
11436SOL     OW35748   0.155   0.869   0.300 -0.4344  0.4042  0.5737
11436SOL    HW135749   0.125   0.778   0.304 -1.5061  0.6972 -0.3097
11436SOL    HW235750   0.082   0.919   0.337 -1.3462  1.1810 -2.0253
11437SOL     OW35751   6.714   5.357   4.754  0.0825 -0.1367  0.1475
11437SOL    HW135752   6.807   5.371   4.737  0.6133 -1.0825  2.0707
11437SOL    HW235753   6.704   5.372   4.848 -1.6868 -0.2348  0.0086
11438SOL     OW35754   2.479   3.307   7.961 -0.4256 -0.2534  0.8269
11438SOL    HW135755   2.538   3.330   7.890 -0.0429  1.0602  1.5339
11438SOL    HW235756   2.521   3.343   8.040 -3.5208  3.5293  1.0387
11439SOL     OW35757   7.251   2.537   8.748 -0.0196 -0.0223 -0.6457
11439SOL    HW135758   7.197   2.595   8.693 -1.0356 -0.4100 -0.0844
11439SOL    HW235759   7.295   2.595   8.809 -0.4787  0.2242 -0.5487
11440SOL     OW35760   2.002   6.998   2.974  0.0394  0.2287  0.2019
11440SOL    HW135761   1.914   7.032   2.961  0.9119  2.1284 -1.1652
11440SOL    HW235762   2.038   7.053   3.044  0.3735 -0.1004  0.2902
11441SOL     OW35763   3.132   7.664  12.170 -0.0493  0.5358  0.1726
11441SOL    HW135764   3.227   7.648  12.169 -0.2602 -0.8246  0.1032
11441SOL    HW235765   3.104   7.646  12.080 -0.3222  1.3370  0.0894
11442SOL     OW35766   2.853   3.568   4.645  0.1906 -0.2187  0.3309
11442SOL    HW135767   2.884   3.632   4.709 -0.3279 -0.0791  0.4532
11442SOL    HW235768   2.886   3.600   4.561  0.6329 -0.2460  0.4911
11443SOL     OW35769   5.469   2.010   6.334  0.3190 -0.0811  0.5572
11443SOL    HW135770   5.508   2.096   6.346  0.4062 -0.2165  1.2586
11443SOL    HW235771   5.497   1.983   6.246 -4.2159  2.9545 -2.2051
11444SOL     OW35772   1.166   3.051   1.569  0.0627 -0.0797  0.7801
11444SOL    HW135773   1.138   3.137   1.600 -2.0953 -0.1963 -0.6722
11444SOL    HW235774   1.097   3.023   1.509  1.0630 -2.5262  0.6553
11445SOL     OW35775   7.006   3.373   5.701 -0.2001 -0.0210  0.0246
11445SOL    HW135776   7.070   3.372   5.771 -0.1345  0.0164 -0.0349
11445SOL    HW235777   6.936   3.430   5.733 -0.2665 -0.1677  0.1448
11446SOL     OW35778   5.335   0.041   4.699  0.2553  0.6032 -0.3068
11446SOL    HW135779   5.332   0.130   4.734  0.4629  1.3790 -2.1518
11446SOL    HW235780   5.336   0.052   4.604 -0.3941 -1.3964 -0.6033
11447SOL     OW35781   1.515   5.624   1.657 -0.0688 -0.0511 -0.6487
11447SOL    HW135782   1.512   5.577   1.574  3.0330  0.5668 -1.2575
11447SOL    HW235783   1.503   5.716   1.633 -2.0569 -0.1018  0.0141
11448SOL     OW35784   1.777   6.593   6.266  0.4289  0.0813 -0.4680
11448SOL    HW135785   1.830   6.646   6.325 -0.5196  0.4789  0.0428
11448SOL    HW235786   1.839   6.531   6.228  0.9367 -0.8349  1.6654
11449SOL     OW35787   7.011   2.197   7.071  0.1924  0.3874  0.1562
11449SOL    HW135788   7.083   2.172   7.128  1.6371  0.5576 -1.5208
11449SOL    HW235789   6.983   2.115   7.031  0.1575  0.4728  0.0070
11450SOL     OW35790   5.124   7.974   6.715  0.1912 -0.0921  0.0976
11450SOL    HW135791   5.104   7.919   6.790 -1.2091 -1.9854 -1.5423
11450SOL    HW235792   5.041   8.014   6.691 -0.1904 -2.0213 -2.2419
11451SOL     OW35793   4.325   6.636   6.040  0.3767 -0.3247 -0.6116
11451SOL    HW135794   4.413   6.666   6.016  0.5938 -1.1878 -0.8994
11451SOL    HW235795   4.281   6.618   5.957 -0.0470  0.0077 -0.4662
11452SOL     OW35796   2.861   0.892   2.325  0.4223  0.1614 -0.1345
11452SOL    HW135797   2.875   0.967   2.383  0.0148  0.1885 -0.0689
11452SOL    HW235798   2.893   0.817   2.376 -3.5699 -0.4271  1.8587
11453SOL     OW35799   1.395   0.180   0.466 -0.0005 -0.1793  0.1518
11453SOL    HW135800   1.349   0.264   0.472 -0.3713 -0.3946  0.3713
11453SOL    HW235801   1.326   0.116   0.452  0.2265 -0.5194  0.5713
11454SOL     OW35802   1.309   7.082  10.555  0.0268  0.4914  0.1208
11454SOL    HW135803   1.284   7.094  10.647  0.5185  0.2569  0.2916
11454SOL    HW235804   1.230   7.049  10.512  0.2099 -0.8614  0.7819
11455SOL     OW35805   2.888   7.340   6.644  0.4689  0.2605 -0.1378
11455SOL    HW135806   2.858   7.410   6.702 -1.0736 -0.2563 -0.2672
11455SOL    HW235807   2.833   7.348   6.566  0.2783 -1.0749 -0.1637
11456SOL     OW35808   2.444   7.162  11.096  0.2176 -0.3518  0.0796
11456SOL    HW135809   2.381   7.176  11.025 -1.5660  1.2818  1.8381
11456SOL    HW235810   2.437   7.069  11.116  0.7279 -0.8367 -1.7979
11457SOL     OW35811   1.334   7.557   2.468 -0.2256 -0.0939  0.1926
11457SOL    HW135812   1.402   7.510   2.515  0.3509  0.0677 -0.4566
11457SOL    HW235813   1.268   7.491   2.449  0.4311 -0.5937 -0.4349
11458SOL     OW35814   2.884   6.137   6.533  0.0341  0.2108 -0.0047
11458SOL    HW135815   2.836   6.056   6.551  0.9516  0.0480  1.9764
11458SOL    HW235816   2.816   6.204   6.522 -0.7406 -0.0662  2.4678
11459SOL     OW35817   7.416   5.012   9.694 -0.2103 -0.2469  0.0306
11459SOL    HW135818   7.462   5.062   9.627  0.4819  1.0023  1.3706
11459SOL    HW235819   7.323   5.031   9.679 -0.0550  0.1510 -0.4537
11460SOL     OW35820   2.369   3.794   5.994  0.2029  0.7641  0.4720
11460SOL    HW135821   2.424   3.824   5.921  1.5198  1.3859  1.6541
11460SOL    HW235822   2.290   3.848   5.989 -0.0090  0.3545 -0.8503
11461SOL     OW35823   5.748   2.980   9.185  0.7757 -0.2351 -0.5580
11461SOL    HW135824   5.806   3.056   9.183  1.1459 -0.3761  1.8520
11461SOL    HW235825   5.777   2.926   9.112  1.0538  1.5157 -1.8197
11462SOL     OW35826   3.979   1.951   4.466  0.3640 -0.3817 -0.1067
11462SOL    HW135827   3.912   1.961   4.534  0.6788 -0.4098  0.2106
11462SOL    HW235828   4.060   1.979   4.508  0.3240  1.0657 -0.9353
11463SOL     OW35829   4.667   3.416  11.594  0.5738  0.5100 -0.3592
11463SOL    HW135830   4.610   3.490  11.572 -0.9113 -0.3630  0.4141
11463SOL    HW235831   4.736   3.454  11.648  0.4097  1.4939 -0.8267
11464SOL     OW35832   4.944   7.859   8.965  0.3778  0.0879  0.9127
11464SOL    HW135833   4.865   7.912   8.976 -1.2189 -2.2483  1.5979
11464SOL    HW235834   4.944   7.837   8.871  1.5835  1.9752  0.4228
11465SOL     OW35835   2.513   4.616   4.491  0.0210 -0.0238  0.8443
11465SOL    HW135836   2.456   4.690   4.515  0.1653 -0.3871  2.4153
11465SOL    HW235837   2.479   4.542   4.541  0.9378 -0.6222  0.6049
11466SOL     OW35838   6.519   0.300  11.008 -0.4093 -0.0796  0.1692
11466SOL    HW135839   6.594   0.302  11.067 -0.3953 -0.5448  0.1647
11466SOL    HW235840   6.554   0.327  10.923 -0.6295  1.6505  0.5819
11467SOL     OW35841   6.201   2.800  11.486 -1.1137 -0.2864  0.0521
11467SOL    HW135842   6.112   2.803  11.450 -0.7584  1.1272 -0.7552
11467SOL    HW235843   6.207   2.880  11.539 -0.5865 -0.7916  0.7645
11468SOL     OW35844   0.083   5.969   4.994  0.6338  0.2109  0.0244
11468SOL    HW135845   0.012   5.916   4.957  0.6020  0.0070  0.3799
11468SOL    HW235846   0.054   5.989   5.083  0.4728  1.1484 -0.2288
11469SOL     OW35847   5.674   0.795   8.176 -0.1288  0.2432 -0.0670
11469SOL    HW135848   5.646   0.876   8.220  0.2334  0.7080 -0.6817
11469SOL    HW235849   5.769   0.804   8.168 -0.0309 -0.4497  0.2575
11470SOL     OW35850   3.653   4.462  11.382 -0.5637 -0.3172 -0.3056
11470SOL    HW135851   3.737   4.507  11.370 -0.0499 -1.2601 -0.3060
11470SOL    HW235852   3.587   4.528  11.360  0.1513  0.6218  0.2733
11471SOL     OW35853   4.344   6.232   1.775  0.4394  0.3242 -0.0818
11471SOL    HW135854   4.426   6.272   1.744  0.4026  0.8359  0.4518
11471SOL    HW235855   4.276   6.295   1.750  0.1609 -0.2915 -0.8802
11472SOL     OW35856   7.277   3.811   5.107  0.5965  0.1436 -0.3060
11472SOL    HW135857   7.279   3.765   5.023 -2.3296  2.7916 -2.0396
11472SOL    HW235858   7.199   3.777   5.152 -0.7095  2.1216 -0.9430
11473SOL     OW35859   7.127   2.169   8.041 -0.0204  1.0670  0.9432
11473SOL    HW135860   7.080   2.090   8.012  1.9155  0.5741 -1.1511
11473SOL    HW235861   7.091   2.239   7.987  0.0327  1.1316  0.9927
11474SOL     OW35862   6.601   3.296   4.028  0.2135  0.2732 -0.6684
11474SOL    HW135863   6.574   3.206   4.047  0.4375  0.1310 -1.0181
11474SOL    HW235864   6.649   3.323   4.106  0.6384 -0.1098 -0.7930
11475SOL     OW35865   7.309   5.408   0.596  0.0506  0.6204  0.0597
11475SOL    HW135866   7.389   5.395   0.544 -0.0884  1.0309 -0.2568
11475SOL    HW235867   7.323   5.491   0.641  0.0447  0.4084  0.4516
11476SOL     OW35868   0.347   2.746   3.792 -0.0674  0.0329  0.6819
11476SOL    HW135869   0.301   2.674   3.834  1.1521 -1.4912 -0.4984
11476SOL    HW235870   0.438   2.737   3.820  0.8265 -1.1055 -2.1871
11477SOL     OW35871   2.896   7.397   3.391  0.4298 -0.2439 -0.3052
11477SOL    HW135872   2.870   7.400   3.299 -0.2347  1.1587 -0.0895
11477SOL    HW235873   2.965   7.331   3.394  0.1837 -0.5972 -1.7358
11478SOL     OW35874   4.733   0.154  10.116 -0.1874  0.2026 -0.3183
11478SOL    HW135875   4.742   0.229  10.057  0.7961  0.0609 -0.3601
11478SOL    HW235876   4.756   0.188  10.202  1.2047 -0.2559 -0.4866
11479SOL     OW35877   5.257   5.144   9.250  0.1186 -0.3494  0.4196
11479SOL    HW135878   5.328   5.166   9.191 -0.6919  0.0002 -0.4451
11479SOL    HW235879   5.288   5.066   9.297  0.4165 -1.1782 -1.1020
11480SOL     OW35880   5.448   5.065   1.717 -0.1241 -0.3301  0.1377
11480SOL    HW135881   5.452   5.017   1.635  2.6460 -0.8728  0.4807
11480SOL    HW235882   5.437   5.156   1.692  0.5251 -0.5133 -0.8447
11481SOL     OW35883   4.149   6.307  11.549 -0.0642 -0.3344 -0.0309
11481SOL    HW135884   4.201   6.236  11.586 -0.6342 -0.2747  0.9367
11481SOL    HW235885   4.156   6.378  11.613  0.7971  0.6402 -1.1562
11482SOL     OW35886   3.294   2.092   7.920 -0.3078  0.3589 -0.0675
11482SOL    HW135887   3.212   2.135   7.944 -0.0505  0.0119  1.4833
11482SOL    HW235888   3.330   2.061   8.002  1.0921 -0.0339 -0.8048
11483SOL     OW35889   6.957   1.351  10.705  0.2623 -0.5796 -0.6906
11483SOL    HW135890   6.971   1.363  10.611  2.7554  1.0693 -0.2097
11483SOL    HW235891   6.911   1.430  10.732  0.1671 -0.7312 -0.4118
11484SOL     OW35892   2.244   6.924   7.308 -0.0393  0.5771  0.3552
11484SOL    HW135893   2.261   6.991   7.242  0.4357  1.8157  1.6737
11484SOL    HW235894   2.155   6.943   7.339 -0.1697  0.1545  0.2475
11485SOL     OW35895   1.399   6.210   3.594  0.3605  0.4424  0.0337
11485SOL    HW135896   1.333   6.151   3.629  0.1494  1.1875  0.9567
11485SOL    HW235897   1.380   6.295   3.636  1.5047  0.8250 -0.1617
11486SOL     OW35898   6.188   7.554   4.773  0.2087  0.1097 -0.1509
11486SOL    HW135899   6.273   7.571   4.731 -0.1898  1.8690 -0.3196
11486SOL    HW235900   6.211   7.512   4.856  1.2196  0.0897 -0.4219
11487SOL     OW35901   2.122   2.833  11.050 -0.0515 -0.4673 -0.7881
11487SOL    HW135902   2.155   2.764  11.108  0.5856  1.4953  1.3790
11487SOL    HW235903   2.156   2.914  11.089 -2.3860  1.2244 -2.0269
11488SOL     OW35904   6.028   1.054  11.869  0.5694  0.0788  0.0138
11488SOL    HW135905   6.073   1.131  11.906  0.9587 -0.4570  0.6879
11488SOL    HW235906   6.028   1.069  11.775 -0.1296  1.3217  0.1912
11489SOL     OW35907   3.633   4.043   7.558 -0.1319 -0.2854 -0.5370
11489SOL    HW135908   3.654   4.135   7.576  0.6884 -0.3372 -1.1550
11489SOL    HW235909   3.571   4.019   7.626 -1.4267  1.1303 -1.1652
11490SOL     OW35910   5.910   6.055   4.921 -0.0004  0.0638 -0.2901
11490SOL    HW135911   5.931   6.065   4.829  1.6111 -0.9290 -0.0650
11490SOL    HW235912   5.838   6.116   4.936 -2.1757 -1.7186 -2.7979
11491SOL     OW35913   0.733   3.039  10.807  0.8148  0.5451  0.6277
11491SOL    HW135914   0.815   3.080  10.833  2.3986 -1.4639 -0.8295
11491SOL    HW235915   0.690   3.104  10.753  1.8961  1.2973  0.6303
11492SOL     OW35916   0.314   7.678  12.352 -0.1235  0.5532 -0.5414
11492SOL    HW135917   0.364   7.731  12.414 -0.9160  3.1934 -1.9968
11492SOL    HW235918   0.332   7.588  12.377  0.7666  1.4771  2.5304
11493SOL     OW35919   6.562   7.831   0.850  0.1710 -0.7641 -0.3097
11493SOL    HW135920   6.611   7.913   0.849 -1.6929  0.4232 -0.1591
11493SOL    HW235921   6.482   7.850   0.802  0.2735 -2.9339 -1.4712
11494SOL     OW35922   2.972   0.350   5.585 -0.0461 -0.0479 -0.4357
11494SOL    HW135923   2.879   0.352   5.561 -0.3876  0.2049  0.8353
11494SOL    HW235924   3.017   0.384   5.508 -1.0498  0.2244 -0.9191
11495SOL     OW35925   0.665   1.570   7.931  0.3840 -0.3109 -0.4827
11495SOL    HW135926   0.655   1.571   7.836  1.3407  0.7191 -0.6010
11495SOL    HW235927   0.626   1.653   7.960  0.7632 -0.2745 -0.0635
11496SOL     OW35928   6.475   1.409  12.036 -0.5988 -0.2490  0.1219
11496SOL    HW135929   6.446   1.397  11.946 -0.6392 -1.2385  0.2529
11496SOL    HW235930   6.568   1.430  12.028 -0.6090 -0.2993 -0.1545
11497SOL     OW35931   4.982   0.094   5.023 -0.5026 -0.3481 -0.4273
11497SOL    HW135932   5.014   0.013   5.062  1.5521 -0.0743 -1.3500
11497SOL    HW235933   5.061   0.148   5.012 -1.2796  0.4568 -2.8177
11498SOL     OW35934   0.865   0.381  11.033 -0.0498 -0.2864 -0.0526
11498SOL    HW135935   0.942   0.352  11.082 -0.3406 -0.4003  0.3507
11498SOL    HW235936   0.872   0.477  11.032  1.1703 -0.3456 -1.8143
11499SOL     OW35937   0.630   3.423   7.779 -0.2313 -0.2346  0.4831
11499SOL    HW135938   0.638   3.519   7.771 -0.0723 -0.1066  1.8741
11499SOL    HW235939   0.541   3.404   7.752  0.3571  0.0109 -1.9236
11500SOL     OW35940   0.695   1.658   7.664  0.2662  0.6575 -0.0694
11500SOL    HW135941   0.679   1.649   7.570  1.5933  1.8756 -0.4365
11500SOL    HW235942   0.675   1.750   7.684 -0.3970  0.3172  0.9343
11501SOL     OW35943   3.365   0.240   1.416 -0.3863  0.1710 -0.2247
11501SOL    HW135944   3.381   0.228   1.509 -0.9639 -1.4293 -0.3071
11501SOL    HW235945   3.431   0.303   1.388 -0.0802  0.5140  1.2170
11502SOL     OW35946   2.981   3.444   1.532  0.3458 -0.1841 -0.3138
11502SOL    HW135947   2.944   3.363   1.567 -1.4186 -0.0195 -1.6759
11502SOL    HW235948   2.928   3.513   1.571  2.5820  0.4828  1.7761
11503SOL     OW35949   6.126   7.861   3.674  0.1432 -0.1257 -0.3370
11503SOL    HW135950   6.143   7.871   3.768  0.9409  1.0720 -0.5855
11503SOL    HW235951   6.213   7.855   3.634 -0.1477 -4.3879 -0.7017
11504SOL     OW35952   6.871   4.282   7.204 -0.1162 -0.1708 -0.1073
11504SOL    HW135953   6.786   4.243   7.226  0.0638  0.0021  0.9232
11504SOL    HW235954   6.910   4.303   7.288  1.2556 -0.8735 -0.5440
11505SOL     OW35955   5.914   0.455   6.143  0.6764  0.3612 -0.2934
11505SOL    HW135956   5.978   0.519   6.173  0.8398 -0.5566  1.4350
11505SOL    HW235957   5.834   0.476   6.193  0.6313 -0.5524  0.0279
11506SOL     OW35958   5.959   0.980  10.301  0.3628 -0.6618  0.3994
11506SOL    HW135959   5.947   0.890  10.333 -1.4872 -0.6968 -0.2558
11506SOL    HW235960   6.005   1.025  10.372  1.3187 -2.1141  0.7373
11507SOL     OW35961   1.127   0.435   8.383  0.5709  0.2960 -0.1622
11507SOL    HW135962   1.045   0.484   8.372  0.8764  0.5500 -1.4513
11507SOL    HW235963   1.195   0.502   8.380  0.7712  0.4322  3.4715
11508SOL     OW35964   5.858   1.509   8.217 -0.4855 -0.0590 -0.3162
11508SOL    HW135965   5.763   1.494   8.215 -0.7158  1.3079 -0.3474
11508SOL    HW235966   5.893   1.433   8.262 -1.5916 -0.6138 -0.3594
11509SOL     OW35967   7.793   5.458   3.509 -0.1902  0.3146 -0.1541
11509SOL    HW135968   7.860   5.486   3.572 -0.1321 -1.0351  0.4201
11509SOL    HW235969   7.790   5.529   3.445  1.9103  0.3477 -0.2987
11510SOL     OW35970   1.884   1.581   7.948  0.4275 -0.3087 -0.2472
11510SOL    HW135971   1.827   1.523   7.897  0.0673 -0.4774  0.3407
11510SOL    HW235972   1.887   1.662   7.897 -1.2309  0.1044  0.2402
11511SOL     OW35973   1.078   3.167   7.819 -0.1667 -0.6257  0.1325
11511SOL    HW135974   1.145   3.143   7.883  0.2439 -1.4179 -0.5708
11511SOL    HW235975   1.118   3.236   7.766 -0.6218  0.2543  0.9075
11512SOL     OW35976   6.370   4.508  10.879  0.1082 -0.0499 -0.3957
11512SOL    HW135977   6.389   4.543  10.967 -0.5747 -0.7905  0.0593
11512SOL    HW235978   6.378   4.413  10.889  0.4105 -0.1217 -1.2433
11513SOL     OW35979   3.340   3.736   0.434  0.2814  0.0753  0.5021
11513SOL    HW135980   3.381   3.767   0.353  0.2051  0.3390  0.5635
11513SOL    HW235981   3.396   3.664   0.463 -0.2207 -0.6489 -0.2822
11514SOL     OW35982   2.561   4.756  10.248 -0.1757  0.2132 -0.4707
11514SOL    HW135983   2.497   4.686  10.235 -1.3054  1.0109  0.5942
11514SOL    HW235984   2.579   4.754  10.342  1.0649  0.2873 -0.6857
11515SOL     OW35985   5.711   0.143  11.954  0.0773  0.1183  0.0434
11515SOL    HW135986   5.747   0.232  11.955 -1.1961  0.7295 -1.9321
11515SOL    HW235987   5.669   0.136  11.868  0.0411 -2.3705  0.2009
11516SOL     OW35988   3.195   5.333   7.473 -0.4414 -0.6183  0.0349
11516SOL    HW135989   3.205   5.315   7.380 -0.5396 -1.2187  0.1344
11516SOL    HW235990   3.238   5.259   7.517 -0.4265 -0.3597  0.4666
11517SOL     OW35991   5.246   5.200  12.438  0.3913  0.6057  0.1004
11517SOL    HW135992   5.202   5.211  12.523  0.8595 -0.1085  0.4427
11517SOL    HW235993   5.175   5.204  12.374 -0.3819 -1.7683  0.7114
11518SOL     OW35994   0.697   2.521  10.987 -0.6622 -0.0403 -0.2456
11518SOL    HW135995   0.673   2.590  10.924 -3.0632 -0.4812  0.0852
11518SOL    HW235996   0.664   2.553  11.071  0.3050 -0.5767  0.3562
11519SOL     OW35997   1.184   3.054   8.853  0.2388 -0.1695  0.3078
11519SOL    HW135998   1.165   3.123   8.790 -0.6109 -0.4450  0.2594
11519SOL    HW235999   1.259   3.088   8.903  0.7669  0.1480 -0.6768
11520SOL     OW36000   1.299   0.057   6.239  0.1313 -0.6458  0.2981
11520SOL    HW136001   1.294   0.069   6.144  0.2577 -0.7288  0.2812
11520SOL    HW236002   1.311  -0.037   6.251 -0.9276 -0.7849  0.4353
11521SOL     OW36003   4.608   5.580  10.150 -0.5831 -0.0061  0.3006
11521SOL    HW136004   4.525   5.545  10.183 -0.3291 -1.4021 -0.4660
11521SOL    HW236005   4.590   5.672  10.131 -1.8692 -0.2165  0.4371
11522SOL     OW36006   1.828   1.823   7.833  0.1212 -0.2060  0.2144
11522SOL    HW136007   1.914   1.840   7.795  0.3244 -1.3262  0.1412
11522SOL    HW236008   1.768   1.824   7.758  0.3509 -1.2260 -0.0057
11523SOL     OW36009   5.455   5.904   4.754  0.3705 -0.1411 -0.1355
11523SOL    HW136010   5.534   5.865   4.792  0.4394 -2.5205 -2.3971
11523SOL    HW236011   5.485   5.944   4.673 -0.4140  1.0201  0.1245
11524SOL     OW36012   3.659   6.114   7.991 -0.3948 -0.2925  0.1766
11524SOL    HW136013   3.667   6.159   8.075 -1.1822  0.0596  0.0740
11524SOL    HW236014   3.591   6.048   8.005  0.7785 -1.5332  0.3414
11525SOL     OW36015   1.311   3.839   3.927 -0.5561  0.1950  0.0569
11525SOL    HW136016   1.304   3.920   3.978  1.0522 -0.4410  1.3591
11525SOL    HW236017   1.254   3.778   3.973 -1.9107  0.5827 -1.0291
11526SOL     OW36018   4.242   6.943   1.763 -0.2167 -0.2968  0.0248
11526SOL    HW136019   4.249   6.994   1.844 -0.4589 -0.2398  0.0088
11526SOL    HW236020   4.217   7.006   1.697  1.6967  0.0029 -0.4641
11527SOL     OW36021   3.703   2.156  11.559  0.1581 -0.2192 -0.6213
11527SOL    HW136022   3.623   2.205  11.576  0.1258 -0.9001  1.5063
11527SOL    HW236023   3.774   2.219  11.571  0.0041  0.1781 -1.6716
11528SOL     OW36024   3.714   5.330   8.210  0.0461  0.0990  0.0506
11528SOL    HW136025   3.682   5.252   8.166  2.4674 -0.4765 -0.8547
11528SOL    HW236026   3.807   5.333   8.189 -0.1307  3.8768 -0.9762
11529SOL     OW36027   6.215   5.034   4.069 -0.4606  0.1449 -0.0531
11529SOL    HW136028   6.274   4.999   4.002 -0.0275 -0.1657  0.4798
11529SOL    HW236029   6.264   5.026   4.151 -0.4891  1.6743  0.1462
11530SOL     OW36030   5.240   5.428   5.270  0.0235 -0.8210  0.5963
11530SOL    HW136031   5.285   5.446   5.352  0.1038 -1.2663  0.6534
11530SOL    HW236032   5.303   5.452   5.202 -0.2357  0.0517  0.6515
11531SOL     OW36033   2.675   2.105   5.528  0.1855 -0.6419 -0.1261
11531SOL    HW136034   2.587   2.142   5.539  0.8651  0.8467  0.5618
11531SOL    HW236035   2.679   2.035   5.593 -0.2730 -0.2658  0.3178
11532SOL     OW36036   0.299   6.116   4.919 -0.2088  0.4295  0.4685
11532SOL    HW136037   0.232   6.057   4.953  0.1820  0.2259  0.8993
11532SOL    HW236038   0.253   6.172   4.856 -0.3770 -1.0170 -0.7447
11533SOL     OW36039   1.321   6.070   8.354  0.1274 -0.0658 -0.3656
11533SOL    HW136040   1.263   6.140   8.385 -0.3078  0.5683 -2.5028
11533SOL    HW236041   1.409   6.105   8.368 -0.0818  0.8746 -1.2332
11534SOL     OW36042   6.608   2.003   4.100 -0.0998  0.2988 -0.1347
11534SOL    HW136043   6.641   2.006   4.010 -0.9237 -2.0675 -0.5774
11534SOL    HW236044   6.514   2.019   4.091  0.1233  2.2072  0.5859
11535SOL     OW36045   7.758   5.820   1.133  0.0283 -0.1987 -0.4428
11535SOL    HW136046   7.718   5.849   1.215  0.2796  0.2612 -0.4764
11535SOL    HW236047   7.688   5.823   1.069  0.0414  0.3274 -0.4403
11536SOL     OW36048   1.420   3.445   9.672  0.1795 -0.6186  0.1046
11536SOL    HW136049   1.377   3.506   9.612  0.1727 -1.5253 -0.8446
11536SOL    HW236050   1.350   3.388   9.703  0.3675 -0.8442  0.1197
11537SOL     OW36051   1.901   5.936   2.558 -0.3203  0.4733 -0.5439
11537SOL    HW136052   1.930   5.857   2.513 -0.5164  0.5717 -0.8414
11537SOL    HW236053   1.807   5.926   2.566 -0.0708 -0.7982  2.2018
11538SOL     OW36054   2.596   6.911   4.615 -0.3285 -0.6967 -0.0305
11538SOL    HW136055   2.520   6.891   4.560 -0.5089 -1.5968  0.5122
11538SOL    HW236056   2.669   6.869   4.570 -0.4214 -1.1495  0.2292
11539SOL     OW36057   1.137   7.623   9.063  0.7558 -0.2053 -0.3634
11539SOL    HW136058   1.138   7.692   9.129  1.7083  1.7709 -2.3315
11539SOL    HW236059   1.092   7.661   8.988  1.5231 -1.6115 -1.5960
11540SOL     OW36060   2.633   6.413   1.077  0.6053  0.0288 -0.2841
11540SOL    HW136061   2.598   6.331   1.110  1.5030  0.8342  3.1233
11540SOL    HW236062   2.567   6.479   1.099  1.8029  0.7891  1.2450
11541SOL     OW36063   3.331   5.213   2.908 -0.0607 -0.2989  0.2900
11541SOL    HW136064   3.421   5.181   2.896  0.0786  0.4755 -0.9560
11541SOL    HW236065   3.283   5.138   2.944  1.1500 -0.6257  1.2671
11542SOL     OW36066   7.620   5.134   3.377  0.5726 -0.1247 -0.0233
11542SOL    HW136067   7.693   5.174   3.425  0.2018  1.1665 -0.4886
11542SOL    HW236068   7.584   5.071   3.438  2.1438 -0.8883  0.1799
11543SOL     OW36069   1.603   7.174   0.971  0.0136  0.3722  0.8895
11543SOL    HW136070   1.556   7.093   0.951  0.0785  0.2726  1.1263
11543SOL    HW236071   1.552   7.243   0.929  1.1346  0.0166 -1.1635
11544SOL     OW36072   1.511   5.576   6.790 -0.5827 -0.1819  0.3757
11544SOL    HW136073   1.492   5.485   6.764 -0.2623 -0.4317  0.9990
11544SOL    HW236074   1.542   5.617   6.710 -1.0384 -0.5371  0.0102
11545SOL     OW36075   0.056   1.660   8.451  0.2801  0.1102  0.0754
11545SOL    HW136076  -0.026   1.620   8.479  0.4392  0.0977  0.5462
11545SOL    HW236077   0.057   1.745   8.494 -0.3467  0.9115 -1.4254
11546SOL     OW36078   5.439   3.625  12.130 -0.0923  0.0310 -0.1316
11546SOL    HW136079   5.474   3.605  12.217 -0.6130  0.0210  0.0809
11546SOL    HW236080   5.516   3.624  12.072  0.5243  1.7109  0.6007
11547SOL     OW36081   3.441   0.750   8.545  0.3346 -0.1966 -0.0874
11547SOL    HW136082   3.346   0.752   8.531  0.3251 -0.3264 -0.0449
11547SOL    HW236083   3.457   0.666   8.588  0.2969  0.4066  1.1596
11548SOL     OW36084   5.564   3.709   4.621 -0.1052  0.3367  0.5702
11548SOL    HW136085   5.595   3.706   4.712 -0.1454  1.1085  0.6103
11548SOL    HW236086   5.544   3.801   4.605  2.0045  0.6204 -0.9220
11549SOL     OW36087   1.712   2.986   6.194  0.4672  0.1796  0.1421
11549SOL    HW136088   1.624   2.976   6.158  0.3115  0.3131  0.4862
11549SOL    HW236089   1.770   2.961   6.122  0.1449 -2.4832  0.6936
11550SOL     OW36090   0.132   1.761   5.090  0.4108  0.5140  0.2875
11550SOL    HW136091   0.106   1.849   5.118  0.0190  0.1632  1.0730
11550SOL    HW236092   0.062   1.705   5.122 -0.3992  0.1357 -2.0107
11551SOL     OW36093   2.189   7.970   0.694 -0.4875  0.5405  0.5726
11551SOL    HW136094   2.131   8.025   0.747  1.3415  1.4334  1.7327
11551SOL    HW236095   2.242   7.923   0.757 -1.6262 -2.2745 -0.4058
11552SOL     OW36096   0.713   6.057  11.114  0.1522 -0.3040 -0.1136
11552SOL    HW136097   0.730   6.119  11.044  0.1657 -0.2605 -0.0718
11552SOL    HW236098   0.704   5.973  11.069 -0.1570 -0.2256 -0.1983
11553SOL     OW36099   6.385   3.707   6.579  0.2813  0.2770  0.6349
11553SOL    HW136100   6.351   3.714   6.668  0.6379 -1.4588  0.9457
11553SOL    HW236101   6.324   3.647   6.535  0.8484  0.0912  0.0919
11554SOL     OW36102   2.949   0.555   2.531  0.2899  0.2048  0.8105
11554SOL    HW136103   2.922   0.467   2.505 -2.7422  1.0201  0.9065
11554SOL    HW236104   2.912   0.567   2.619 -2.6662  2.8182 -0.6175
11555SOL     OW36105   2.015   7.220   6.192 -0.0503  0.2779  0.1340
11555SOL    HW136106   2.064   7.293   6.232 -1.1724  0.5722  1.0110
11555SOL    HW236107   2.048   7.142   6.237  0.2350  0.3859  0.1141
11556SOL     OW36108   1.072   2.578   8.255  0.3080  0.5059 -0.2709
11556SOL    HW136109   1.014   2.646   8.222 -1.0585 -0.0140  0.9412
11556SOL    HW236110   1.153   2.624   8.277  0.0206  1.4244 -1.0991
11557SOL     OW36111   5.471   2.599   3.965 -0.2949 -0.1325 -0.0653
11557SOL    HW136112   5.452   2.551   3.885  1.1056 -0.6979 -0.0866
11557SOL    HW236113   5.531   2.542   4.014  2.2179  1.9407 -0.5163
11558SOL     OW36114   1.156   1.477   3.369 -0.1525 -0.0350 -0.0384
11558SOL    HW136115   1.138   1.441   3.282 -1.3644  0.9073 -0.1978
11558SOL    HW236116   1.251   1.490   3.370  0.1796 -2.1197 -0.3844
11559SOL     OW36117   3.252   1.557   5.960  0.3711 -0.3517  0.2066
11559SOL    HW136118   3.292   1.483   6.006  1.5276  1.1035  1.6511
11559SOL    HW236119   3.162   1.561   5.994  0.8802  0.0350  1.5456
11560SOL     OW36120   6.271   0.908   1.100 -0.0695  0.9287 -0.6159
11560SOL    HW136121   6.273   0.910   1.004  0.5143  0.5055 -0.6168
11560SOL    HW236122   6.316   0.987   1.127  0.2370  0.7794 -0.6902
11561SOL     OW36123   4.565   6.413   5.151 -0.4723  0.5694 -0.1608
11561SOL    HW136124   4.647   6.440   5.110 -0.7969  0.2705 -1.0440
11561SOL    HW236125   4.564   6.458   5.235 -0.7965  2.9363 -1.3668
11562SOL     OW36126   3.336   3.875   1.142  0.1865  0.2736 -0.5670
11562SOL    HW136127   3.351   3.912   1.055 -2.5234  0.8948 -0.8620
11562SOL    HW236128   3.285   3.796   1.126 -2.6376  1.7562  0.4781
11563SOL     OW36129   7.654   2.886  10.555  0.8273  0.0628 -0.3313
11563SOL    HW136130   7.653   2.946  10.630  0.4405  0.5766 -0.7418
11563SOL    HW236131   7.580   2.914  10.501  2.4643  1.2365 -2.1179
11564SOL     OW36132   0.207   4.362   7.964 -0.4182 -0.5781  0.3004
11564SOL    HW136133   0.255   4.300   7.909  1.3474 -1.1551  2.3341
11564SOL    HW236134   0.123   4.320   7.981  0.8996 -2.7560  2.0065
11565SOL     OW36135   6.192   2.209   2.779  0.2198 -0.3100 -0.0514
11565SOL    HW136136   6.130   2.184   2.710  1.0181  0.0235 -0.9062
11565SOL    HW236137   6.138   2.253   2.844 -0.4149  0.2257 -0.9113
11566SOL     OW36138   4.161   4.318  10.341  0.4953 -0.1445  0.5018
11566SOL    HW136139   4.236   4.375  10.327  0.6821 -0.3067  0.8241
11566SOL    HW236140   4.085   4.371  10.317  0.6885  0.1332  0.4982
11567SOL     OW36141   3.691   1.662  12.009 -0.9043  0.0079 -0.6406
11567SOL    HW136142   3.718   1.748  12.040  2.1272 -1.0739  0.0954
11567SOL    HW236143   3.634   1.628  12.079  0.8551  0.0313  0.8589
11568SOL     OW36144   2.798   6.104   7.470  0.3401 -0.9620 -0.1610
11568SOL    HW136145   2.840   6.112   7.555  1.9953 -1.1260 -0.9357
11568SOL    HW236146   2.847   6.164   7.413 -1.5860  0.1772 -0.7186
11569SOL     OW36147   2.938   6.100   7.724 -0.0165  0.1817 -0.0069
11569SOL    HW136148   2.981   6.017   7.745 -1.5468 -0.6827 -0.1612
11569SOL    HW236149   2.933   6.147   7.807  0.9435  0.1743  0.0632
11570SOL     OW36150   5.752   2.395   3.135  0.1416  0.5151 -0.0078
11570SOL    HW136151   5.778   2.435   3.052  3.7196 -2.1620 -0.4055
11570SOL    HW236152   5.692   2.325   3.110 -1.3317  1.7016  0.0792
11571SOL     OW36153   7.681   7.936   9.047  0.4105  0.5770  0.0407
11571SOL    HW136154   7.762   7.944   9.097  0.4437  0.2852  0.0369
11571SOL    HW236155   7.631   7.868   9.092  0.1492  0.7852  0.0667
11572SOL     OW36156   7.081   0.395   5.197 -0.5726 -0.2219 -0.3081
11572SOL    HW136157   7.017   0.327   5.176  0.1291 -1.7591  2.1174
11572SOL    HW236158   7.029   0.465   5.236 -0.9293 -1.0399  0.7431
11573SOL     OW36159   7.333   2.721   3.417 -0.1621  0.3294  0.1794
11573SOL    HW136160   7.373   2.682   3.340  0.3026 -0.7196  0.9140
11573SOL    HW236161   7.315   2.812   3.393 -0.5637 -0.1346 -1.3385
11574SOL     OW36162   2.370   6.861   2.829 -0.1963 -0.2817  0.8927
11574SOL    HW136163   2.279   6.861   2.800  0.6004  0.4644 -1.8327
11574SOL    HW236164   2.419   6.830   2.754  1.8841 -0.1244  2.1219
11575SOL     OW36165   2.935   6.049   3.561 -0.4648 -0.1268  0.1200
11575SOL    HW136166   3.027   6.020   3.566 -1.0729 -2.4298 -0.7018
11575SOL    HW236167   2.932   6.104   3.483  0.4984  1.2624  1.0207
11576SOL     OW36168   0.575   6.689   6.121  0.1581 -0.6210 -0.6639
11576SOL    HW136169   0.668   6.703   6.108  0.1252  0.3441  0.0581
11576SOL    HW236170   0.559   6.713   6.212 -1.3447  2.3106 -1.5698
11577SOL     OW36171   4.534   3.299  10.418 -0.8785  0.0867 -0.3228
11577SOL    HW136172   4.458   3.274  10.471 -0.0240  0.8491  1.3234
11577SOL    HW236173   4.507   3.378  10.372 -1.1565  0.2280  0.0804
11578SOL     OW36174   3.976   6.225   3.773 -0.3829 -0.8560  0.1951
11578SOL    HW136175   3.989   6.289   3.843  1.5759 -0.6786 -0.2740
11578SOL    HW236176   3.891   6.185   3.792 -1.7854  1.9660  0.4230
11579SOL     OW36177   2.026   4.687   6.332  0.4116 -0.7323  0.0794
11579SOL    HW136178   2.083   4.690   6.409 -0.4978  0.4970  0.7354
11579SOL    HW236179   2.051   4.763   6.281 -1.2319  0.3634  0.8414
11580SOL     OW36180   5.691   7.938   6.122  1.1324 -0.6378  0.6283
11580SOL    HW136181   5.681   7.909   6.213 -1.7211 -1.5446  0.1493
11580SOL    HW236182   5.709   8.032   6.128  0.3130 -0.5408  2.1586
11581SOL     OW36183   5.966   6.379  12.159 -0.2952 -0.5477  0.1715
11581SOL    HW136184   5.984   6.380  12.065 -0.0371  0.9895  0.2113
11581SOL    HW236185   5.944   6.470  12.180 -4.1449 -1.4817  0.9141
11582SOL     OW36186   1.686   1.390   5.608 -0.3689 -0.3021 -0.2955
11582SOL    HW136187   1.771   1.433   5.618  0.0518 -1.0898 -0.3519
11582SOL    HW236188   1.622   1.456   5.634  0.3017  0.0451  0.5193
11583SOL     OW36189   7.129   0.005   6.889  0.1532 -0.8401 -0.4170
11583SOL    HW136190   7.081  -0.070   6.854 -1.8507  0.9035 -1.6189
11583SOL    HW236191   7.080   0.032   6.966  1.3615 -1.2362  0.5319
11584SOL     OW36192   3.830   2.260   8.072 -0.2121  0.3687 -0.0805
11584SOL    HW136193   3.797   2.177   8.038 -0.5879 -0.9010  3.0647
11584SOL    HW236194   3.908   2.278   8.019  1.5313 -3.5102  0.8342
11585SOL     OW36195   7.442   4.163   2.659  0.8773 -0.3088  0.0154
11585SOL    HW136196   7.408   4.090   2.710  2.6305 -1.2432 -0.0894
11585SOL    HW236197   7.451   4.234   2.723 -0.8848 -0.1288  0.1035
11586SOL     OW36198   6.938   2.165  11.598 -0.7860 -0.0993  0.6044
11586SOL    HW136199   6.971   2.251  11.624  0.7553 -0.6469  0.5863
11586SOL    HW236200   6.969   2.154  11.508  1.9622 -1.9680  1.6345
11587SOL     OW36201   5.118   6.771  10.027  0.1747  0.0931 -0.4736
11587SOL    HW136202   5.135   6.833  10.098  0.1106 -0.3199 -0.0944
11587SOL    HW236203   5.199   6.768   9.978  0.2338  0.3523 -0.3909
11588SOL     OW36204   1.110   6.304   6.315  0.0465  0.2673  0.0079
11588SOL    HW136205   1.170   6.318   6.388  0.0444 -1.7380  0.4419
11588SOL    HW236206   1.025   6.336   6.347 -0.0211 -0.8789  1.0113
11589SOL     OW36207   6.245   0.212   1.082  0.7665  0.2808  0.2040
11589SOL    HW136208   6.153   0.189   1.076  1.0396 -0.6645 -0.6707
11589SOL    HW236209   6.246   0.302   1.115 -0.4451  0.1802  0.5364
11590SOL     OW36210   5.326   6.233   4.755  0.0682  0.0383 -0.6164
11590SOL    HW136211   5.361   6.321   4.768  0.0064  0.2676 -1.9172
11590SOL    HW236212   5.355   6.208   4.667 -0.7939 -0.8275 -0.6707
11591SOL     OW36213   6.559   6.213   9.385  0.0124 -0.1468  0.2339
11591SOL    HW136214   6.507   6.174   9.315 -1.2560  1.7939  0.0267
11591SOL    HW236215   6.613   6.279   9.342  1.1205 -0.6687  0.7622
11592SOL     OW36216   0.435   0.301   3.761 -0.3562 -0.0611 -0.4127
11592SOL    HW136217   0.357   0.351   3.786 -0.1656  0.0696 -0.0740
11592SOL    HW236218   0.400   0.221   3.722 -0.6622  0.0347 -0.3388
11593SOL     OW36219   1.772   1.548   0.459  0.4786 -0.2889  0.0692
11593SOL    HW136220   1.842   1.536   0.395 -0.4029 -0.5498 -0.8618
11593SOL    HW236221   1.714   1.473   0.447 -0.2261  0.1738  0.4855
11594SOL     OW36222   1.450   3.255  12.297  0.2306  0.2726  0.2405
11594SOL    HW136223   1.390   3.256  12.372 -0.5036  1.3796 -0.3256
11594SOL    HW236224   1.395   3.281  12.223  1.2211  0.4073 -0.4608
11595SOL     OW36225   4.616   0.076  11.122  0.4059  0.3775 -0.4477
11595SOL    HW136226   4.627   0.149  11.184 -0.1744  0.1500 -0.0686
11595SOL    HW236227   4.681   0.012  11.149  1.4534  1.0617 -1.2624
11596SOL     OW36228   1.137   0.386   9.195  0.1541 -0.4540 -0.0574
11596SOL    HW136229   1.227   0.412   9.218  1.1780 -2.3755 -1.5705
11596SOL    HW236230   1.138   0.290   9.201 -1.8193 -0.5042 -0.1128
11597SOL     OW36231   2.551   0.756   6.605 -0.1105  0.1562  0.5095
11597SOL    HW136232   2.536   0.662   6.596  0.1877 -0.0329  1.7670
11597SOL    HW236233   2.478   0.797   6.559  0.4955 -0.6623 -1.2621
11598SOL     OW36234   6.397   7.959   7.751  0.2998 -0.2111 -0.2532
11598SOL    HW136235   6.370   7.921   7.667  3.0116  0.8684 -1.7525
11598SOL    HW236236   6.463   7.898   7.785 -0.2815 -0.2835  0.7934
11599SOL     OW36237   1.022   5.184   0.914  0.1208  0.4072 -0.3691
11599SOL    HW136238   0.936   5.144   0.928 -0.1031  0.9979 -0.0395
11599SOL    HW236239   1.084   5.111   0.920 -0.3014  0.0799  0.0095
11600SOL     OW36240   6.862   2.185   2.593  0.2759 -0.3878  0.2196
11600SOL    HW136241   6.845   2.193   2.687  2.8378  1.5451  0.6292
11600SOL    HW236242   6.951   2.218   2.581 -0.8258  2.0550 -3.2099
11601SOL     OW36243   1.358   0.406   3.352 -0.1470 -0.2336  0.3468
11601SOL    HW136244   1.359   0.312   3.371 -2.5754  0.0623  2.4035
11601SOL    HW236245   1.399   0.413   3.266 -0.2406 -3.2118 -0.0484
11602SOL     OW36246   7.248   5.684   9.341  0.1892 -0.2820 -0.6045
11602SOL    HW136247   7.184   5.696   9.272 -0.9277 -1.9787  0.0853
11602SOL    HW236248   7.250   5.768   9.387 -1.3232 -0.1007 -0.8371
11603SOL     OW36249   1.415   1.147   0.975  0.3115 -0.1225 -0.0452
11603SOL    HW136250   1.418   1.192   1.060  1.5188  1.7771 -1.0287
11603SOL    HW236251   1.334   1.180   0.934  0.8574  0.6923 -0.4968
11604SOL     OW36252   7.571   4.606   1.258 -0.3936  0.9342  0.2806
11604SOL    HW136253   7.547   4.622   1.167  1.0431 -0.7829 -0.4700
11604SOL    HW236254   7.633   4.532   1.254 -1.2382 -0.0229  2.7458
11605SOL     OW36255   2.738   7.427  10.250 -0.1188  0.0877 -0.1973
11605SOL    HW136256   2.788   7.413  10.330 -0.3038 -0.8002 -0.2272
11605SOL    HW236257   2.662   7.479  10.277  0.8816  1.6129 -0.1850
11606SOL     OW36258   7.536   1.997  10.861  0.5224  0.3357 -0.5089
11606SOL    HW136259   7.507   1.923  10.914 -2.2427 -0.4472 -2.8696
11606SOL    HW236260   7.623   2.019  10.896  0.8502 -3.0693  1.2082
11607SOL     OW36261   1.348   1.284   1.338 -0.2704 -0.4176 -0.6899
11607SOL    HW136262   1.386   1.355   1.286  2.6646 -0.4934  1.0962
11607SOL    HW236263   1.370   1.204   1.290 -3.7131 -0.3358 -2.7853
11608SOL     OW36264   4.729   3.849   3.897 -0.6413 -0.0566 -0.2538
11608SOL    HW136265   4.666   3.843   3.825  1.6638  1.5949 -2.5880
11608SOL    HW236266   4.675   3.853   3.976 -3.3466 -0.5137 -1.9571
11609SOL     OW36267   0.301   7.675   1.543 -0.0317  0.2585 -0.2415
11609SOL    HW136268   0.378   7.703   1.593  1.5243 -1.7366 -1.3304
11609SOL    HW236269   0.254   7.617   1.602  0.4203 -0.0842 -0.2054
11610SOL     OW36270   5.406   0.885  11.902 -0.1331  0.4798  0.0970
11610SOL    HW136271   5.421   0.908  11.810 -2.4937  0.2820 -0.4064
11610SOL    HW236272   5.480   0.829  11.925  0.7681  0.9352 -1.5288
11611SOL     OW36273   2.988   1.521   6.012  0.0088 -0.5498 -0.6612
11611SOL    HW136274   2.950   1.584   5.951  1.8217  0.3742 -0.8961
11611SOL    HW236275   3.017   1.449   5.956 -0.4740 -0.8007 -0.5948
11612SOL     OW36276   0.434   5.687   6.851 -0.5016  0.9951 -0.2269
11612SOL    HW136277   0.529   5.697   6.861 -0.6308  0.7916  1.4419
11612SOL    HW236278   0.400   5.776   6.863 -0.5398  1.0948 -0.9739
11613SOL     OW36279   0.293   1.790   2.443  0.5690 -0.1421 -0.2343
11613SOL    HW136280   0.262   1.880   2.437 -0.4627 -0.4931 -0.3578
11613SOL    HW236281   0.236   1.741   2.383 -1.4919 -1.5430  2.6041
11614SOL     OW36282   5.066   5.925   7.414  0.5145 -0.5547 -0.0707
11614SOL    HW136283   5.070   5.839   7.373 -0.2082 -0.9007  0.5561
11614SOL    HW236284   5.062   5.907   7.508  0.3295  0.1576  0.0674
11615SOL     OW36285   5.925   7.108   2.679 -0.1920  0.1473 -0.5151
11615SOL    HW136286   5.964   7.144   2.600  1.7324 -1.9901 -0.6216
11615SOL    HW236287   5.947   7.015   2.677  0.5478  0.1263  2.8700
11616SOL     OW36288   1.295   2.627   4.816  0.1171 -0.1669  0.1466
11616SOL    HW136289   1.320   2.581   4.736  0.1117  0.8306 -0.4498
11616SOL    HW236290   1.232   2.694   4.787  1.6167  1.5470  0.6309
11617SOL     OW36291   0.215   6.610   0.484  0.0154 -0.2714 -0.2865
11617SOL    HW136292   0.203   6.690   0.432 -2.8828 -0.4666 -0.1255
11617SOL    HW236293   0.138   6.557   0.463  0.7895 -2.1021  1.2227
11618SOL     OW36294   5.160   6.353   8.373 -0.5172  0.0017 -0.3384
11618SOL    HW136295   5.215   6.427   8.397 -1.7353  0.5538  0.9102
11618SOL    HW236296   5.220   6.278   8.369  0.4284  0.7033  0.2703
11619SOL     OW36297   1.417   6.173   1.151 -0.1364 -0.4647 -0.3667
11619SOL    HW136298   1.364   6.114   1.204 -2.3020  0.9183 -0.8666
11619SOL    HW236299   1.461   6.230   1.214  0.6508 -1.5120  0.0515
11620SOL     OW36300   5.414   6.260   1.904 -0.2727 -0.3858  0.0083
11620SOL    HW136301   5.506   6.283   1.899 -0.2158 -0.8177 -1.3756
11620SOL    HW236302   5.413   6.168   1.929 -0.2155 -0.9802 -1.9802
11621SOL     OW36303   4.939   5.652   7.555 -0.1982  0.2946  0.2169
11621SOL    HW136304   4.990   5.657   7.474  0.7204 -0.3572  0.7449
11621SOL    HW236305   4.848   5.641   7.525 -0.3036  2.9296 -0.7723
11622SOL     OW36306   5.933   3.197   8.155  0.3198  0.1332 -0.0187
11622SOL    HW136307   5.880   3.277   8.156  0.4556  0.2807 -1.7210
11622SOL    HW236308   5.870   3.126   8.156  0.1459  0.2861 -0.1071
11623SOL     OW36309   0.445   7.571   5.858 -0.2172  0.0796 -0.0021
11623SOL    HW136310   0.460   7.648   5.913 -1.0698 -0.1231  0.5269
11623SOL    HW236311   0.356   7.582   5.824  0.4641  0.4461 -1.7489
11624SOL     OW36312   3.561   3.189   0.082  0.1409 -0.1184  0.2883
11624SOL    HW136313   3.585   3.098   0.061 -1.1333 -0.6575  0.9866
11624SOL    HW236314   3.596   3.203   0.170  0.9554  0.3148 -0.1068
11625SOL     OW36315   4.645   4.467  12.189 -1.1858  0.1436 -0.0571
11625SOL    HW136316   4.582   4.419  12.135 -0.9739 -1.3541  0.9541
11625SOL    HW236317   4.722   4.410  12.192 -1.6632 -0.5025  2.8471
11626SOL     OW36318   5.641   0.560   8.960 -0.2217  0.5437  0.3530
11626SOL    HW136319   5.591   0.523   8.888 -0.4794  1.4464  0.0591
11626SOL    HW236320   5.575   0.582   9.026 -0.0421  0.2210  0.6438
11627SOL     OW36321   1.668   4.924   0.314 -0.0326 -0.5910 -0.2711
11627SOL    HW136322   1.726   4.907   0.389  1.1666  1.8320 -0.5760
11627SOL    HW236323   1.699   4.864   0.246 -1.3530 -3.0712  1.1784
11628SOL     OW36324   3.963   6.403  11.163  0.0837  0.3931  0.5910
11628SOL    HW136325   3.900   6.409  11.234 -0.9716  1.7850 -0.4123
11628SOL    HW236326   4.044   6.439  11.198  0.0485 -0.4521  1.5693
11629SOL     OW36327   7.296   2.325   0.479 -0.2090  0.2528  0.0487
11629SOL    HW136328   7.266   2.284   0.398  0.4528 -0.8562  0.3427
11629SOL    HW236329   7.216   2.353   0.523 -0.7264 -1.1753  0.0561
11630SOL     OW36330   6.315   7.840   4.281 -0.4356 -0.2526  0.2801
11630SOL    HW136331   6.239   7.794   4.245 -1.3728  3.0243 -2.5245
11630SOL    HW236332   6.279   7.897   4.349 -0.4399  0.8414 -0.6111
11631SOL     OW36333   7.124   1.247  11.713  0.3421 -0.4481 -0.0292
11631SOL    HW136334   7.200   1.250  11.771  0.0007 -0.3824  0.4260
11631SOL    HW236335   7.049   1.245  11.773 -0.0805  1.1321 -0.4601
11632SOL     OW36336   1.282   5.149   9.604 -0.0667 -0.3028 -0.4467
11632SOL    HW136337   1.207   5.113   9.650 -0.2212  0.9237  0.3248
11632SOL    HW236338   1.354   5.090   9.624 -0.4850 -0.6425  0.0717
11633SOL     OW36339   0.632   7.809   9.041 -0.3240  0.3837 -0.0029
11633SOL    HW136340   0.709   7.849   9.081 -0.3484  0.3045  0.1231
11633SOL    HW236341   0.658   7.719   9.023 -0.4975  0.2640  0.3452
11634SOL     OW36342   1.248   5.028   1.302  0.5079 -0.0936 -0.3929
11634SOL    HW136343   1.335   5.047   1.269  0.1154  2.0268 -0.3530
11634SOL    HW236344   1.250   5.056   1.393 -0.5073  1.1068 -0.7039
11635SOL     OW36345   1.108   3.579   7.864 -0.5973 -0.3750 -0.2100
11635SOL    HW136346   1.180   3.523   7.892 -0.5848 -0.1410  0.2264
11635SOL    HW236347   1.032   3.521   7.860 -0.0078 -1.1002 -2.6315
11636SOL     OW36348   3.306   2.711  10.520  0.0431 -0.6328 -0.2762
11636SOL    HW136349   3.327   2.726  10.428 -1.2711 -0.4148 -0.5545
11636SOL    HW236350   3.211   2.703  10.523  0.0162 -0.1639  1.1320
11637SOL     OW36351   7.261   2.600   7.750  0.8617  0.2457  0.0903
11637SOL    HW136352   7.257   2.689   7.782  0.3901  0.2891 -0.0803
11637SOL    HW236353   7.334   2.600   7.687 -0.3507  1.0032 -1.3689
11638SOL     OW36354   2.059   1.821   1.607  0.2645  0.1584 -0.0355
11638SOL    HW136355   2.035   1.910   1.580  0.3817  0.7720  1.7481
11638SOL    HW236356   2.152   1.827   1.629  0.3888 -0.5258 -0.3517
11639SOL     OW36357   6.287   6.906   7.928 -0.0281 -0.0116 -0.0448
11639SOL    HW136358   6.332   6.929   7.847 -1.6581  1.5195 -0.6074
11639SOL    HW236359   6.207   6.862   7.899  0.0570 -0.7538  0.8125
11640SOL     OW36360   2.828   3.970  11.965  0.0085  0.3547  0.2925
11640SOL    HW136361   2.856   3.896  11.911  0.9641  0.0391  1.1956
11640SOL    HW236362   2.789   4.032  11.902 -0.2575 -0.6408 -0.5490
11641SOL     OW36363   1.460   1.206   0.276 -0.1468  0.2876  0.5766
11641SOL    HW136364   1.412   1.124   0.264  2.0282 -0.8435 -1.0865
11641SOL    HW236365   1.542   1.180   0.318  0.0028  1.8563  1.3564
11642SOL     OW36366   7.938   4.978   9.238 -0.0660  0.3900 -0.1945
11642SOL    HW136367   8.021   4.989   9.191  0.4399  0.6390  0.7405
11642SOL    HW236368   7.940   4.888   9.269 -0.3529  0.2569 -0.5623
11643SOL     OW36369   0.545   3.806   0.655  0.3118  0.2511 -0.1371
11643SOL    HW136370   0.510   3.873   0.714  1.0782  1.1163 -0.6345
11643SOL    HW236371   0.547   3.849   0.569  3.0280  0.4643 -0.0695
11644SOL     OW36372   2.734   6.259  11.319  0.0362 -0.0734  0.0214
11644SOL    HW136373   2.816   6.292  11.282  0.5282 -0.8285  0.3919
11644SOL    HW236374   2.741   6.277  11.412 -0.1456 -0.2777  0.0754
11645SOL     OW36375   2.227   0.813   7.870  0.0657  0.1334  0.0268
11645SOL    HW136376   2.236   0.876   7.798 -0.6896 -1.6565 -1.7468
11645SOL    HW236377   2.309   0.765   7.870  0.3084  0.5337  0.8114
11646SOL     OW36378   5.355   3.566   1.224 -0.0522 -0.3845  0.0706
11646SOL    HW136379   5.308   3.511   1.162  1.0542 -0.5548 -0.6439
11646SOL    HW236380   5.315   3.652   1.216  2.0364  0.4772 -3.2624
11647SOL     OW36381   1.229   7.388   7.571 -0.0074  0.2645 -0.5396
11647SOL    HW136382   1.206   7.362   7.482 -0.6387  0.2380 -0.3725
11647SOL    HW236383   1.179   7.468   7.586  1.1451  1.0348 -0.6863
11648SOL     OW36384   7.154   0.874   8.897  0.2707 -0.2159  0.8900
11648SOL    HW136385   7.215   0.918   8.957 -0.5597  0.6359  1.1387
11648SOL    HW236386   7.067   0.904   8.926 -0.1507  0.1934 -0.7228
11649SOL     OW36387   7.222   0.640   9.686  0.0544 -0.3867  1.0528
11649SOL    HW136388   7.302   0.591   9.707 -0.0809 -1.5957 -0.9836
11649SOL    HW236389   7.153   0.595   9.734  0.1817 -1.1382  0.5389
11650SOL     OW36390   2.710   7.049  11.631  0.1941 -0.2791 -0.3254
11650SOL    HW136391   2.709   7.142  11.656 -0.5697 -0.8072  1.7789
11650SOL    HW236392   2.784   7.012  11.679  0.2009 -0.8684 -0.7805
11651SOL     OW36393   5.479   3.148  11.075 -0.5598  0.0039  0.2140
11651SOL    HW136394   5.503   3.236  11.047 -0.4042 -0.1880 -0.2699
11651SOL    HW236395   5.488   3.150  11.171  2.8999 -0.4450  0.0295
11652SOL     OW36396   2.983   4.630   4.213 -0.1221  0.0460  0.1734
11652SOL    HW136397   3.063   4.672   4.242 -0.5877  0.8530  0.3244
11652SOL    HW236398   2.937   4.607   4.294  0.3493 -1.2119  0.1000
11653SOL     OW36399   1.759   7.643   2.608 -0.4488  0.3514 -0.3352
11653SOL    HW136400   1.831   7.593   2.646  0.2692  2.6188  1.4650
11653SOL    HW236401   1.680   7.594   2.633  0.2328  0.0106  1.2361
11654SOL     OW36402   2.142   2.927   7.263  0.5247  1.0512 -0.0836
11654SOL    HW136403   2.228   2.920   7.304  0.7351 -0.7838 -0.7572
11654SOL    HW236404   2.149   2.873   7.184 -1.8470 -0.8264  0.9033
11655SOL     OW36405   4.834   3.067   8.172  0.5455  0.3084  0.1826
11655SOL    HW136406   4.921   3.029   8.157  0.8759  1.6785 -1.7259
11655SOL    HW236407   4.840   3.155   8.136 -1.4127  0.7212  0.7620
11656SOL     OW36408   5.533   0.908   7.846  0.3635  0.0722  0.1423
11656SOL    HW136409   5.559   0.838   7.905 -0.3640 -2.0146 -1.8863
11656SOL    HW236410   5.456   0.948   7.887 -0.5067 -1.7411  0.3374
11657SOL     OW36411   5.853   2.272   1.960  0.2296  0.7988 -0.1143
11657SOL    HW136412   5.872   2.274   1.866  3.1714 -1.2246  0.3021
11657SOL    HW236413   5.836   2.180   1.979  0.3842  1.0608  1.4544
11658SOL     OW36414   6.454   0.865   7.163 -0.3087 -0.7252  0.0604
11658SOL    HW136415   6.381   0.909   7.207  0.4831  0.4906  0.1864
11658SOL    HW236416   6.532   0.899   7.206  0.3686 -1.7049 -0.3587
11659SOL     OW36417   6.811   1.459   5.159  0.0531  0.0050 -0.6268
11659SOL    HW136418   6.842   1.439   5.071 -0.0411 -0.9259 -0.4582
11659SOL    HW236419   6.850   1.544   5.179  0.1878  0.1657 -1.5084
11660SOL     OW36420   1.606   4.872   9.702  0.2606  0.3780 -0.0940
11660SOL    HW136421   1.584   4.895   9.612 -1.3643 -0.4130  0.0656
11660SOL    HW236422   1.618   4.777   9.701 -1.8711  0.0336  0.8628
11661SOL     OW36423   3.325   4.098   9.869 -0.4192 -0.4089 -0.5730
11661SOL    HW136424   3.305   4.074   9.778 -2.2932  2.0812 -0.9512
11661SOL    HW236425   3.240   4.122   9.906  0.2548 -1.6413  1.9778
11662SOL     OW36426   7.614   4.490   6.097  0.0639 -0.4842 -0.4780
11662SOL    HW136427   7.594   4.397   6.109  1.3971 -0.7883 -0.4964
11662SOL    HW236428   7.697   4.491   6.049  0.5360  0.7102  0.3279
11663SOL     OW36429   0.398   2.258   9.442 -0.1906 -0.7536  0.1339
11663SOL    HW136430   0.451   2.325   9.484 -1.3860  1.5067 -1.7439
11663SOL    HW236431   0.455   2.222   9.374 -0.5359  0.6743 -0.9531
11664SOL     OW36432   0.630   5.792   4.774  0.3297 -0.2233  0.3634
11664SOL    HW136433   0.600   5.875   4.812 -0.1931 -0.8618  1.3846
11664SOL    HW236434   0.710   5.772   4.823  0.5776 -0.2150 -0.0360
11665SOL     OW36435   4.868   1.727   6.437 -0.3631  0.2527 -0.1367
11665SOL    HW136436   4.784   1.684   6.418 -0.8718  1.2447 -0.1849
11665SOL    HW236437   4.845   1.799   6.496 -0.0347  2.5189 -2.5868
11666SOL     OW36438   4.341   5.096  11.072  0.1477  0.5462 -0.0893
11666SOL    HW136439   4.247   5.088  11.054 -0.5236  0.1514  2.9590
11666SOL    HW236440   4.352   5.056  11.158  3.3209 -0.2571 -0.7312
11667SOL     OW36441   3.978   3.813   2.297 -0.3286 -0.0806  0.0621
11667SOL    HW136442   3.954   3.729   2.336  2.3645 -0.7189  0.5243
11667SOL    HW236443   3.945   3.878   2.359 -2.9704 -0.6788 -0.5905
11668SOL     OW36444   2.390   4.959   4.082 -0.2419 -0.3567 -0.6106
11668SOL    HW136445   2.361   5.039   4.038  1.4561 -0.7187 -2.5094
11668SOL    HW236446   2.484   4.971   4.096  0.0992 -2.0895 -1.1442
11669SOL     OW36447   3.904   0.387   0.070  0.0105 -0.7279 -0.3694
11669SOL    HW136448   3.856   0.413  -0.009  1.8132  1.4371 -0.8526
11669SOL    HW236449   3.875   0.448   0.137  2.2539  0.9095 -0.7826
11670SOL     OW36450   6.574   6.766   8.630 -0.3002 -0.0919  0.4106
11670SOL    HW136451   6.510   6.741   8.697 -0.0152  0.6216  0.9495
11670SOL    HW236452   6.544   6.720   8.551 -0.6691 -0.8950  1.0008
11671SOL     OW36453   2.013   7.940   6.693 -0.0647  0.0730 -0.0871
11671SOL    HW136454   2.073   7.904   6.628 -0.4620 -0.5546 -0.1156
11671SOL    HW236455   2.058   7.925   6.777  0.9442  1.8661 -0.2669
11672SOL     OW36456   4.580   4.727  10.520  0.7977 -0.1483  0.5624
11672SOL    HW136457   4.673   4.702  10.516  0.4580 -1.7107  1.7415
11672SOL    HW236458   4.566   4.751  10.612  0.0985  0.4192  0.3165
11673SOL     OW36459   5.797   1.998  10.673  0.2406  0.1199  0.5883
11673SOL    HW136460   5.886   1.974  10.699  0.1571 -0.6199  0.2056
11673SOL    HW236461   5.796   2.094  10.677  1.1577  0.1515  0.2618
11674SOL     OW36462   0.318   3.397   5.799  0.2083 -0.3217 -0.5128
11674SOL    HW136463   0.316   3.447   5.717  0.5345 -1.2843 -1.1290
11674SOL    HW236464   0.381   3.443   5.853  1.0721 -0.4821 -1.3560
11675SOL     OW36465   4.897   5.830  11.549 -0.0690 -0.1528  0.5232
11675SOL    HW136466   4.900   5.823  11.644 -0.3127  2.5344  0.8019
11675SOL    HW236467   4.814   5.873  11.530 -0.4993 -1.5533 -1.0232
11676SOL     OW36468   7.563   3.399   4.876 -0.6632 -0.0459  0.1665
11676SOL    HW136469   7.572   3.305   4.891  1.2861 -0.0936 -0.9719
11676SOL    HW236470   7.554   3.437   4.963 -2.2161 -1.3248  0.5987
11677SOL     OW36471   0.988   0.938   5.037 -0.3916 -0.1906  0.2872
11677SOL    HW136472   1.058   0.936   5.103  0.9332  3.5870 -0.7496
11677SOL    HW236473   1.034   0.942   4.953 -1.8968  0.2774 -0.5553
11678SOL     OW36474   4.780   1.627   5.866 -0.6259  0.0484  0.3668
11678SOL    HW136475   4.805   1.620   5.958 -2.3474 -0.7746  0.8214
11678SOL    HW236476   4.714   1.558   5.854  0.0642 -0.3278 -1.6704
11679SOL     OW36477   4.944   6.072   1.152 -0.1613  0.0815  0.0432
11679SOL    HW136478   5.039   6.066   1.166 -0.3874 -2.1747  1.0285
11679SOL    HW236479   4.926   6.013   1.079 -0.9527 -0.6252  0.7834
11680SOL     OW36480   1.035   3.690   0.829 -0.2568 -0.6633  0.1526
11680SOL    HW136481   0.988   3.625   0.777  0.6880 -2.3474  1.3499
11680SOL    HW236482   1.038   3.654   0.917  0.2267  1.0549  0.8871
11681SOL     OW36483   3.934   0.018   9.625  0.6728  0.3646 -0.1804
11681SOL    HW136484   3.991  -0.031   9.565  0.3806  2.2612 -2.0918
11681SOL    HW236485   3.993   0.046   9.695  1.3860 -0.4333 -0.4381
11682SOL     OW36486   5.851   4.961  11.217 -0.1983  0.1317 -0.5188
11682SOL    HW136487   5.941   4.970  11.248  0.0106 -1.4612 -0.5780
11682SOL    HW236488   5.797   4.978  11.294  0.1780  0.1816 -0.2639
11683SOL     OW36489   3.089   1.579   6.756  0.7767 -0.4156 -0.5127
11683SOL    HW136490   3.124   1.523   6.687  2.4307 -0.4921  0.3372
11683SOL    HW236491   3.158   1.582   6.823  0.8664  2.7539 -0.5773
11684SOL     OW36492   7.414   4.583  12.284 -0.1508  0.0360  0.2086
11684SOL    HW136493   7.431   4.672  12.253  1.4709  0.1381  1.2707
11684SOL    HW236494   7.346   4.592  12.350 -0.3923  0.3993 -0.0856
11685SOL     OW36495   0.026   0.652   8.855  0.4921 -0.0013 -0.2006
11685SOL    HW136496   0.113   0.656   8.895  0.1650  0.3470  0.4883
11685SOL    HW236497  -0.034   0.644   8.929 -0.1911  1.4531 -0.5740
11686SOL     OW36498   6.057   5.595   9.300  0.7548  0.0970  0.3294
11686SOL    HW136499   6.031   5.660   9.366  0.4915  0.2878  0.0400
11686SOL    HW236500   6.043   5.640   9.216 -1.0249 -0.8925  0.0527
11687SOL     OW36501   7.547   2.041   3.432  0.7191  0.4736 -0.2354
11687SOL    HW136502   7.532   1.953   3.397  1.2304 -0.2391  1.2305
11687SOL    HW236503   7.464   2.064   3.475  1.3698 -0.4268  1.6200
11688SOL     OW36504   5.973   3.908   5.758  0.0602  0.5379  0.2628
11688SOL    HW136505   5.880   3.905   5.738  0.1799 -2.5419 -0.3675
11688SOL    HW236506   6.009   3.969   5.695 -1.3322  0.5355 -0.5719
11689SOL     OW36507   6.085   5.312   8.198 -0.4591  0.3241 -0.4294
11689SOL    HW136508   6.092   5.407   8.199  0.3562  0.2676  0.6547
11689SOL    HW236509   6.164   5.281   8.241 -1.5884 -0.7811  0.9839
11690SOL     OW36510   5.589   6.576   9.961 -0.1448 -0.1221 -1.0848
11690SOL    HW136511   5.642   6.647   9.997 -0.0721 -0.7015  0.0061
11690SOL    HW236512   5.650   6.503   9.952 -0.4703 -0.3993 -1.0760
11691SOL     OW36513   2.597   6.753   0.159 -0.1866  0.1417  0.9851
11691SOL    HW136514   2.645   6.784   0.082  0.2586  0.5415  1.4192
11691SOL    HW236515   2.542   6.827   0.185 -0.8128 -0.2094  0.6778
11692SOL     OW36516   3.253   1.538   7.317 -0.4644  0.1908  0.0061
11692SOL    HW136517   3.249   1.619   7.367 -0.8006  2.1125 -2.8512
11692SOL    HW236518   3.346   1.513   7.319 -0.5577 -0.1487  1.9677
11693SOL     OW36519   0.233   5.359   4.425 -0.6453 -0.0289  0.3759
11693SOL    HW136520   0.260   5.380   4.515  2.0230 -0.6769 -0.2113
11693SOL    HW236521   0.253   5.438   4.375 -1.1575 -0.0360  0.1561
11694SOL     OW36522   1.577   0.619  11.126 -0.2678 -0.1981  0.1647
11694SOL    HW136523   1.497   0.587  11.085  0.2373 -0.6459 -0.4991
11694SOL    HW236524   1.611   0.544  11.175 -0.3407  0.0420  0.5907
11695SOL     OW36525   7.490   7.048   8.783 -0.0900  0.9392  0.1925
11695SOL    HW136526   7.473   7.083   8.695 -1.8955  0.7610  0.4305
11695SOL    HW236527   7.532   6.964   8.767 -0.8701  0.6720 -0.5340
11696SOL     OW36528   1.828   2.809   4.919 -0.1151  0.0385  0.5651
11696SOL    HW136529   1.859   2.719   4.934  0.6890 -0.0730 -1.4478
11696SOL    HW236530   1.774   2.803   4.840  0.9209  1.4872 -0.3094
11697SOL     OW36531   6.200   7.882  10.287 -0.2865 -0.1430 -0.3654
11697SOL    HW136532   6.211   7.901  10.194  1.6777 -2.2054 -0.6314
11697SOL    HW236533   6.166   7.792  10.290  1.4995 -0.8405  0.8742
11698SOL     OW36534   0.059   0.283   4.732  0.2527 -0.2677  0.1234
11698SOL    HW136535  -0.022   0.282   4.681  1.5798 -2.0968 -2.1039
11698SOL    HW236536   0.113   0.350   4.690 -0.3544  1.7332  2.2619
11699SOL     OW36537   4.499   7.834   1.574 -0.5958  0.4678  0.2836
11699SOL    HW136538   4.542   7.826   1.489  1.6022  0.6170  1.2978
11699SOL    HW236539   4.455   7.919   1.571  0.1551  0.8420 -0.4193
11700SOL     OW36540   2.465   5.273   0.749 -0.1865 -0.0714  0.0338
11700SOL    HW136541   2.500   5.336   0.686  0.4070  0.0807  0.5090
11700SOL    HW236542   2.479   5.314   0.834 -0.0351 -0.7343  0.3335
11701SOL     OW36543   7.620   5.482   8.575  0.1911 -0.2616 -0.4435
11701SOL    HW136544   7.528   5.493   8.599  0.7191  2.4453  0.7218
11701SOL    HW236545   7.669   5.517   8.649  2.1261 -0.3462 -1.6057
11702SOL     OW36546   3.620   7.611   4.796  0.0933  0.0448  0.4570
11702SOL    HW136547   3.592   7.689   4.749  0.5826  0.3750  0.7025
11702SOL    HW236548   3.653   7.643   4.880  1.3919 -0.2796  0.1105
11703SOL     OW36549   1.366   0.445   3.819  0.1280 -0.2960 -0.4600
11703SOL    HW136550   1.300   0.492   3.871  1.1633  0.8759 -0.1581
11703SOL    HW236551   1.337   0.354   3.821 -0.8108 -0.0057  0.7175
11704SOL     OW36552   4.568   1.099  10.854  0.1352  0.4945 -0.0018
11704SOL    HW136553   4.517   1.049  10.918  0.9759 -0.1825  0.1571
11704SOL    HW236554   4.611   1.167  10.905  1.3046 -0.4251  0.2968
11705SOL     OW36555   4.735   1.840  12.249 -0.2484 -0.0867  0.3093
11705SOL    HW136556   4.810   1.805  12.297  0.1477 -1.8398 -1.4739
11705SOL    HW236557   4.692   1.763  12.211 -1.0678  1.1343 -1.3763
11706SOL     OW36558   4.273   0.513   2.931  0.1898  0.3929  0.1449
11706SOL    HW136559   4.190   0.533   2.888  1.2085  2.1429 -1.1471
11706SOL    HW236560   4.280   0.578   3.001  1.8991  2.5365 -1.8435
11707SOL     OW36561   7.865   4.529  10.890 -0.0041  0.0564  0.0790
11707SOL    HW136562   7.893   4.565  10.974  0.5307 -0.7529  0.2639
11707SOL    HW236563   7.808   4.456  10.913 -0.0642 -0.0058 -0.2596
11708SOL     OW36564   7.161   0.318   0.841  0.1520 -0.1689 -0.0426
11708SOL    HW136565   7.096   0.372   0.797 -0.1032 -0.7261 -0.3633
11708SOL    HW236566   7.110   0.257   0.893  0.4284 -0.3040  0.0723
11709SOL     OW36567   5.744   3.142   4.681  0.2566  0.9384  0.0469
11709SOL    HW136568   5.824   3.186   4.709  1.2425  0.5644 -2.0334
11709SOL    HW236569   5.734   3.166   4.589 -1.0776 -0.4039 -0.1957
11710SOL     OW36570   4.347   0.567   1.248  0.0449  0.3478  0.0158
11710SOL    HW136571   4.416   0.629   1.226  1.8718 -1.4794  0.3533
11710SOL    HW236572   4.277   0.621   1.286  2.2650  2.0341  1.9676
11711SOL     OW36573   1.848   6.503   0.787  0.2133  0.3583  0.5647
11711SOL    HW136574   1.895   6.496   0.704  0.5401  1.0591  0.6857
11711SOL    HW236575   1.916   6.518   0.853 -0.2561  3.2017  0.5096
11712SOL     OW36576   4.195   1.990   8.232 -0.1348 -0.1746  0.1032
11712SOL    HW136577   4.156   2.053   8.292 -1.6962 -0.6375 -0.3666
11712SOL    HW236578   4.183   1.905   8.276  1.0202 -0.2752  0.2652
11713SOL     OW36579   6.624   1.662  10.700 -0.3301 -0.0807 -0.3608
11713SOL    HW136580   6.590   1.589  10.648 -0.6070  0.6793 -1.2714
11713SOL    HW236581   6.718   1.644  10.707 -0.6882 -1.5776  1.1691
11714SOL     OW36582   2.462   1.442   0.488  0.1404 -0.0797  0.3219
11714SOL    HW136583   2.397   1.456   0.557 -0.3237 -1.2577  0.1522
11714SOL    HW236584   2.414   1.451   0.406  0.4826  0.3566  0.1665
11715SOL     OW36585   0.364   4.949   1.694 -0.1171 -0.5379  0.1907
11715SOL    HW136586   0.392   4.858   1.688 -1.6494 -1.0904  0.8937
11715SOL    HW236587   0.363   4.968   1.787 -0.1197  0.1010  0.0628
11716SOL     OW36588   0.155   1.804   0.607  0.3520  0.2190  0.0043
11716SOL    HW136589   0.101   1.852   0.545  0.1760 -0.1463 -0.1244
11716SOL    HW236590   0.182   1.870   0.672  0.8119  0.6777 -0.6380
11717SOL     OW36591   5.787   4.762   1.557 -0.7454  0.0968 -0.1163
11717SOL    HW136592   5.695   4.769   1.533 -0.4280  0.5408 -1.2477
11717SOL    HW236593   5.817   4.682   1.514 -0.3173  0.5725 -0.7108
11718SOL     OW36594   3.105   5.332   2.296 -0.0385  0.8838 -0.1507
11718SOL    HW136595   3.118   5.416   2.340  1.7305  0.4186  0.3000
11718SOL    HW236596   3.189   5.286   2.306  0.0011  0.2063 -2.8708
11719SOL     OW36597   4.820   0.017   3.533 -0.1832 -0.0883 -0.3251
11719SOL    HW136598   4.915   0.025   3.529 -0.3040  1.1468 -1.5487
11719SOL    HW236599   4.789   0.108   3.536 -1.3597 -0.4119 -1.7418
11720SOL     OW36600   6.034   6.216   8.412 -0.5391  0.2174  0.1052
11720SOL    HW136601   6.093   6.147   8.382 -1.5869 -0.9634  0.6912
11720SOL    HW236602   6.080   6.254   8.487  0.7556  1.2540 -1.1451
11721SOL     OW36603   2.744   0.414   6.669  0.0272  0.9023  0.0794
11721SOL    HW136604   2.671   0.454   6.621 -2.0305 -2.7060 -0.1266
11721SOL    HW236605   2.803   0.383   6.600  0.4577  1.5325  0.1584
11722SOL     OW36606   6.861   6.327   0.386  0.1152 -0.6326 -0.9441
11722SOL    HW136607   6.923   6.312   0.457 -2.4334 -2.0343  1.1747
11722SOL    HW236608   6.878   6.417   0.359  0.7555  0.2470  1.9879
11723SOL     OW36609   5.162   7.657   0.455  0.4842  0.0029 -0.0331
11723SOL    HW136610   5.070   7.631   0.456  0.1020  1.1625 -1.4852
11723SOL    HW236611   5.211   7.575   0.465 -0.6908 -0.8407 -0.9496
11724SOL     OW36612   1.847   6.560   2.413  0.1884  0.1141 -0.5623
11724SOL    HW136613   1.830   6.515   2.496  2.6232  0.2282  0.0727
11724SOL    HW236614   1.921   6.618   2.432 -0.1545  1.2418 -2.4600
11725SOL     OW36615   0.252   3.470  10.240 -0.0915  0.3322 -0.1526
11725SOL    HW136616   0.194   3.445  10.168 -0.6513 -2.2285  1.0851
11725SOL    HW236617   0.193   3.509  10.305 -0.2452 -0.9571  0.5079
11726SOL     OW36618   6.417   1.768   9.874  0.1953 -0.0363  0.0246
11726SOL    HW136619   6.326   1.751   9.850  0.8188 -1.1595 -1.6544
11726SOL    HW236620   6.411   1.807   9.962 -1.8539 -0.5858  0.1848
11727SOL     OW36621   0.585   1.837   5.137 -0.0364 -0.3078 -0.6377
11727SOL    HW136622   0.650   1.808   5.074 -0.2583 -1.7147 -0.2536
11727SOL    HW236623   0.514   1.773   5.130 -0.1956 -0.3324  0.8235
11728SOL     OW36624   3.799   1.571   9.617 -0.8139  0.2239  0.4841
11728SOL    HW136625   3.823   1.499   9.559  0.3582  1.3008 -0.4157
11728SOL    HW236626   3.840   1.549   9.700 -0.1786  0.0135  0.1209
11729SOL     OW36627   0.291   4.379   1.718  0.7627  0.1536  0.2149
11729SOL    HW136628   0.258   4.290   1.721 -0.9022  0.6884 -0.8145
11729SOL    HW236629   0.214   4.433   1.698  1.8263  1.7460  0.2220
11730SOL     OW36630   5.329   7.345   5.141 -1.1463  0.2610  0.2583
11730SOL    HW136631   5.322   7.257   5.105 -0.5999  0.1773  0.3568
11730SOL    HW236632   5.321   7.333   5.236 -0.7852  0.2881  0.2911
11731SOL     OW36633   4.243   2.822   9.510 -0.5363  0.1510 -0.4133
11731SOL    HW136634   4.175   2.801   9.574  0.3240  1.4006  0.9764
11731SOL    HW236635   4.270   2.911   9.532  2.1364 -0.6005 -0.3636
11732SOL     OW36636   0.719   2.269  10.557 -0.7524 -0.1728  0.5823
11732SOL    HW136637   0.812   2.276  10.575 -0.6560  0.9870 -0.2917
11732SOL    HW236638   0.705   2.176  10.539  0.5713 -0.1166 -0.9409
11733SOL     OW36639   0.765   7.945   7.023 -0.2350 -0.0118  0.4054
11733SOL    HW136640   0.806   8.010   6.966  1.2899 -1.1586  0.1319
11733SOL    HW236641   0.674   7.973   7.029  0.2630  1.8722 -0.0727
11734SOL     OW36642   2.472   3.333   4.487 -0.1048 -0.4292  0.1641
11734SOL    HW136643   2.521   3.407   4.451  0.1247 -0.7005 -0.0879
11734SOL    HW236644   2.428   3.369   4.564  1.5491 -0.4964  1.1997
11735SOL     OW36645   5.464   4.702   5.663 -0.3901  0.2347  0.1394
11735SOL    HW136646   5.452   4.671   5.753 -0.3906  0.7860  0.3325
11735SOL    HW236647   5.394   4.766   5.650 -0.7142 -0.2232 -0.4348
11736SOL     OW36648   3.665   1.025   6.357  0.4199  0.3852 -0.2836
11736SOL    HW136649   3.628   0.994   6.440 -1.7210  0.5737 -1.0940
11736SOL    HW236650   3.723   0.954   6.329 -1.6074 -1.3493 -0.3431
11737SOL     OW36651   0.782   3.593   4.247 -0.1698 -0.1138  0.2777
11737SOL    HW136652   0.756   3.590   4.339  1.8568  0.4636  0.9309
11737SOL    HW236653   0.793   3.686   4.229 -0.1951 -0.2498 -0.4521
11738SOL     OW36654   1.903   1.155   7.804  0.3730  0.0856  0.1525
11738SOL    HW136655   1.816   1.191   7.819 -1.2175 -1.6753 -3.5064
11738SOL    HW236656   1.934   1.199   7.724  0.7607 -2.4588 -1.2117
11739SOL     OW36657   4.685   7.772   6.058  0.6032  0.2094  0.2923
11739SOL    HW136658   4.693   7.866   6.071 -1.0706  0.3514  0.4985
11739SOL    HW236659   4.593   7.758   6.036  1.0070 -1.2856 -0.6228
11740SOL     OW36660   7.449   4.386   3.197  0.1093  0.0025 -0.1778
11740SOL    HW136661   7.427   4.293   3.199  0.2231 -0.0154  0.3224
11740SOL    HW236662   7.517   4.397   3.264  2.0538 -0.0382 -2.0318
11741SOL     OW36663   3.366   2.810   8.347  0.5743 -0.1310  0.4947
11741SOL    HW136664   3.430   2.776   8.409  1.2075 -0.6187 -0.4086
11741SOL    HW236665   3.340   2.895   8.384  4.1980  1.7207 -0.6877
11742SOL     OW36666   1.882   2.717   8.616 -0.2018 -0.2692 -0.2364
11742SOL    HW136667   1.955   2.693   8.558 -2.4261 -1.6196 -2.6739
11742SOL    HW236668   1.851   2.801   8.583 -1.4640 -1.0306 -1.0747
11743SOL     OW36669   4.534   3.946   8.145  0.3156  0.1856  0.0409
11743SOL    HW136670   4.464   3.959   8.208 -0.7449  0.3783 -1.1342
11743SOL    HW236671   4.489   3.925   8.063  1.5920  1.0297 -0.9193
11744SOL     OW36672   5.940   4.984   4.014  0.0392  0.7704 -0.0103
11744SOL    HW136673   5.878   5.001   4.085 -0.7955 -2.4610  0.1870
11744SOL    HW236674   6.020   4.955   4.058 -0.4274 -1.0863 -0.2797
11745SOL     OW36675   6.305   4.657   8.192 -0.1350 -0.6749  0.3041
11745SOL    HW136676   6.317   4.748   8.165  0.7221 -0.9615 -0.3245
11745SOL    HW236677   6.254   4.663   8.272  0.0285  0.3696  0.3489
11746SOL     OW36678   3.566   1.016   1.288  0.0239  0.0101 -0.0916
11746SOL    HW136679   3.614   1.099   1.287  0.6903 -0.3274  1.3339
11746SOL    HW236680   3.632   0.949   1.275 -0.4848 -0.3289 -1.0124
11747SOL     OW36681   3.454   0.271   8.880  0.1604 -0.8172  0.7709
11747SOL    HW136682   3.431   0.196   8.934 -1.2226 -0.0843  1.2383
11747SOL    HW236683   3.377   0.327   8.882  0.9278  0.3188 -0.0924
11748SOL     OW36684   5.203   6.875   4.388 -0.4643 -0.1297 -0.8221
11748SOL    HW136685   5.169   6.962   4.367 -1.3292 -0.2433  0.0558
11748SOL    HW236686   5.297   6.889   4.403 -0.5576  0.6143 -0.9096
11749SOL     OW36687   2.613   1.589   8.118 -0.3372  0.6446 -0.2131
11749SOL    HW136688   2.657   1.591   8.033  0.4481 -1.3107  0.1102
11749SOL    HW236689   2.541   1.528   8.106  0.3432 -0.3841  0.7500
11750SOL     OW36690   4.800   7.822   0.641  0.1520  0.2423 -0.0259
11750SOL    HW136691   4.885   7.865   0.633  0.6330 -0.3253  1.5704
11750SOL    HW236692   4.737   7.891   0.621  0.9531  1.1140  0.3555
11751SOL     OW36693   0.910   1.319  11.294 -0.2111  0.2521 -0.4233
11751SOL    HW136694   0.989   1.281  11.331  0.7834  0.7463 -1.9396
11751SOL    HW236695   0.941   1.386  11.234 -1.7783  0.4144 -1.1130
11752SOL     OW36696   3.694   4.002  11.121 -1.0802  0.2175 -0.6467
11752SOL    HW136697   3.678   3.970  11.209 -0.0445 -1.3738 -0.9870
11752SOL    HW236698   3.790   3.999  11.111 -1.1672  0.5139 -1.7648
11753SOL     OW36699   4.503   5.802  10.914  0.1730 -0.1101  0.5023
11753SOL    HW136700   4.530   5.892  10.931  1.3630 -0.3718  0.1504
11753SOL    HW236701   4.461   5.773  10.995  0.3771  0.5531  0.8511
11754SOL     OW36702   6.361   6.441   7.701 -0.2033 -0.2341  0.1632
11754SOL    HW136703   6.310   6.399   7.632  0.0870  0.1903 -0.3118
11754SOL    HW236704   6.296   6.460   7.769 -0.6207 -0.0277 -0.2812
11755SOL     OW36705   1.924   0.718   9.095 -0.2201 -0.0862  0.1797
11755SOL    HW136706   1.944   0.712   9.189 -0.8291  0.5295  0.3600
11755SOL    HW236707   1.847   0.774   9.091  0.9955  1.6318 -0.8297
11756SOL     OW36708   0.360   7.906   5.850 -0.0053  0.0467 -0.3145
11756SOL    HW136709   0.448   7.895   5.814  0.9254  3.3021  0.6382
11756SOL    HW236710   0.308   7.935   5.775  0.3448  0.5711 -0.3561
11757SOL     OW36711   6.130   5.633   1.314 -0.4740  0.0063  0.0356
11757SOL    HW136712   6.051   5.580   1.303 -0.1056 -0.2032 -1.8206
11757SOL    HW236713   6.132   5.652   1.408 -1.5829 -1.7460  0.4632
11758SOL     OW36714   7.444   2.850   1.034  0.2645  0.0608  0.1664
11758SOL    HW136715   7.464   2.856   1.128 -0.4768  0.3037  0.3163
11758SOL    HW236716   7.524   2.879   0.991  0.0014  1.8285  0.7540
11759SOL     OW36717   2.501   1.891  10.230 -0.2085  0.0215 -0.4470
11759SOL    HW136718   2.550   1.944  10.167  1.8475 -2.8643 -1.5130
11759SOL    HW236719   2.435   1.846  10.177 -0.3429 -0.2807 -0.0250
11760SOL     OW36720   1.307   0.943   3.625  0.2638 -0.1339 -0.1604
11760SOL    HW136721   1.353   0.996   3.690 -1.2069 -0.2166  0.9898
11760SOL    HW236722   1.311   0.854   3.659  2.1548 -0.7429 -1.7670
11761SOL     OW36723   6.130   0.911  10.727 -0.5095  0.2957 -0.5298
11761SOL    HW136724   6.040   0.938  10.744 -0.6059 -0.9744  1.2177
11761SOL    HW236725   6.128   0.816  10.730  0.8396  0.2320 -0.8860
11762SOL     OW36726   4.964   6.962   0.969 -0.4210 -0.1533  0.4432
11762SOL    HW136727   4.899   7.026   0.998  0.5450  1.2291 -0.2749
11762SOL    HW236728   4.947   6.953   0.875 -0.1118 -0.4357  0.4151
11763SOL     OW36729   7.365   6.178   9.153  0.1428  0.1075 -0.3207
11763SOL    HW136730   7.429   6.193   9.083  0.5223 -0.2729 -0.0571
11763SOL    HW236731   7.367   6.083   9.167  0.8578  0.2927  0.9458
11764SOL     OW36732   2.217   4.042   9.754 -0.0886  0.2872  0.2948
11764SOL    HW136733   2.207   4.058   9.848 -3.2191  1.2745 -0.0963
11764SOL    HW236734   2.245   3.951   9.748  1.2165  0.4921  2.1629
11765SOL     OW36735   5.201   3.220   9.775  0.4747 -0.4723  0.1770
11765SOL    HW136736   5.245   3.291   9.728  0.2736 -0.0419  0.6320
11765SOL    HW236737   5.269   3.184   9.832  1.4318 -2.5769 -2.0900
11766SOL     OW36738   7.195   1.931   1.240  0.4949 -0.1572  0.1340
11766SOL    HW136739   7.180   1.962   1.151 -0.3996  1.1424  0.7028
11766SOL    HW236740   7.245   2.001   1.281  0.6947 -0.6422  0.7313
11767SOL     OW36741   0.838   3.355   4.921 -0.7865  0.1649 -0.2297
11767SOL    HW136742   0.817   3.304   4.999  0.8907 -2.6596 -1.4546
11767SOL    HW236743   0.788   3.313   4.851  0.0787  0.6569 -1.1720
11768SOL     OW36744   7.279   0.014   5.288 -0.4298 -0.1060  0.3852
11768SOL    HW136745   7.297  -0.072   5.326  1.1350  0.2288  0.4847
11768SOL    HW236746   7.293   0.002   5.194 -0.8854 -0.1223  0.3196
11769SOL     OW36747   3.483   7.001   0.369  0.2130  0.4208 -0.4411
11769SOL    HW136748   3.530   7.048   0.437  1.1184  0.3159 -0.9717
11769SOL    HW236749   3.401   7.050   0.357 -0.7892 -0.5457  1.9038
11770SOL     OW36750   3.924   2.092  12.381 -0.1638 -0.2707 -0.2618
11770SOL    HW136751   3.937   2.140  12.300 -0.9190  0.7481  0.1936
11770SOL    HW236752   3.833   2.064  12.379  0.4130 -2.2680 -0.7931
11771SOL     OW36753   0.722   5.739   1.912  0.1575  0.0733 -0.0522
11771SOL    HW136754   0.634   5.769   1.932  0.8259  2.7085 -0.6852
11771SOL    HW236755   0.757   5.805   1.853  2.3636 -1.2158 -0.2990
11772SOL     OW36756   1.088   6.640   5.495 -0.2732  0.4624  0.1523
11772SOL    HW136757   1.009   6.590   5.474 -0.3878 -0.3626  2.3507
11772SOL    HW236758   1.157   6.574   5.504 -0.0075  0.8735  1.2090
11773SOL     OW36759   0.479   7.324   7.736 -0.1233  0.3711 -0.2770
11773SOL    HW136760   0.520   7.247   7.695  3.0882 -0.6187  4.0996
11773SOL    HW236761   0.545   7.393   7.727 -0.9772  1.2364 -0.0332
11774SOL     OW36762   1.465   0.561   0.142  0.2139  0.4788  0.5235
11774SOL    HW136763   1.414   0.553   0.222  0.8207  0.9270  0.9679
11774SOL    HW236764   1.431   0.639   0.099 -2.2173 -1.3852 -1.2455
11775SOL     OW36765   3.036   1.223   8.831 -0.1570 -0.0859  0.6319
11775SOL    HW136766   2.945   1.222   8.861  0.3569  0.7870  2.3705
11775SOL    HW236767   3.031   1.201   8.738 -1.9176 -2.4456  1.1944
11776SOL     OW36768   2.419   1.611   7.096  0.5529 -0.6666 -0.3221
11776SOL    HW136769   2.327   1.634   7.090  0.4935 -0.1632  1.7491
11776SOL    HW236770   2.445   1.591   7.006 -1.4208 -0.2950 -1.0192
11777SOL     OW36771   7.272   3.214   0.300 -0.4587  0.6943 -0.2037
11777SOL    HW136772   7.322   3.244   0.224  0.5207  0.5958  0.3732
11777SOL    HW236773   7.181   3.230   0.278 -0.1589  1.0108 -1.2436
11778SOL     OW36774   2.902   2.727  11.942 -0.1000 -0.2001  0.4043
11778SOL    HW136775   2.906   2.822  11.933 -3.0239  0.1928  1.8740
11778SOL    HW236776   2.986   2.703  11.980  0.2752  1.9689  1.1239
11779SOL     OW36777   2.699   3.209   4.879  0.0750 -0.5040 -0.0290
11779SOL    HW136778   2.647   3.282   4.914 -1.9047 -2.4596  1.3408
11779SOL    HW236779   2.745   3.247   4.804  0.7115  2.6501  1.7913
11780SOL     OW36780   4.835   1.631   4.148  0.1253  1.1665  0.1395
11780SOL    HW136781   4.861   1.633   4.240 -0.2118  1.1284  0.2363
11780SOL    HW236782   4.862   1.716   4.113  2.6693  0.2303 -0.4047
11781SOL     OW36783   7.234   3.247   7.972  0.1858 -0.5197 -0.2653
11781SOL    HW136784   7.321   3.213   7.949  1.1826  0.3795  1.8477
11781SOL    HW236785   7.244   3.342   7.968 -0.1426 -0.3597  1.6688
11782SOL     OW36786   4.097   4.070   1.592  0.3231 -0.2315 -0.7484
11782SOL    HW136787   4.129   4.123   1.518 -0.9367  1.2818 -0.2655
11782SOL    HW236788   4.007   4.048   1.568  0.5851 -1.5467 -0.5846
11783SOL     OW36789   2.174   2.674   1.382  0.4793  0.2171  0.0974
11783SOL    HW136790   2.158   2.602   1.321  0.4061 -0.6781  1.1339
11783SOL    HW236791   2.087   2.706   1.405  0.3436 -1.1259  1.6382
11784SOL     OW36792   0.910   5.554   3.886  0.1394 -0.2763 -0.0333
11784SOL    HW136793   0.937   5.497   3.814  0.9317 -0.8662  0.7135
11784SOL    HW236794   0.879   5.494   3.954 -0.0618  0.2472  0.3451
11785SOL     OW36795   3.959   3.901   2.741  0.2331  0.3496  0.3238
11785SOL    HW136796   4.054   3.896   2.729  0.0944 -0.8400 -0.4890
11785SOL    HW236797   3.937   3.823   2.793 -0.0929  1.6322  2.2022
11786SOL     OW36798   0.668   1.955   4.661 -0.1815 -0.0107 -0.1528
11786SOL    HW136799   0.708   1.889   4.718  0.4256  0.4114 -0.0793
11786SOL    HW236800   0.574   1.937   4.667 -0.3679  1.2971  2.6608
11787SOL     OW36801   3.889   7.340   9.687  0.3228  0.6006  0.2818
11787SOL    HW136802   3.824   7.393   9.641 -0.0113  0.7309  0.8815
11787SOL    HW236803   3.946   7.404   9.730  0.7316  0.4840 -0.0757
11788SOL     OW36804   6.223   3.171   7.795 -0.5596 -0.3686 -0.6541
11788SOL    HW136805   6.219   3.197   7.887 -2.1399  1.2009 -1.1195
11788SOL    HW236806   6.139   3.129   7.778 -1.0332  0.9950 -1.8127
11789SOL     OW36807   7.269   4.453   9.829 -0.0170 -0.0186  0.6649
11789SOL    HW136808   7.305   4.541   9.840 -2.3577  1.2309 -0.8063
11789SOL    HW236809   7.176   4.467   9.811 -0.2437 -2.7106 -0.8332
11790SOL     OW36810   7.134   0.969   8.129  0.1371 -0.3541  0.2172
11790SOL    HW136811   7.176   0.910   8.192 -0.3784  1.2552  2.1916
11790SOL    HW236812   7.049   0.989   8.168  0.1841  1.4503 -0.5085
11791SOL     OW36813   5.655   7.346  11.093  0.3867  0.6598 -0.1504
11791SOL    HW136814   5.707   7.317  11.019  1.6868  0.0567  0.9613
11791SOL    HW236815   5.713   7.404  11.143  0.1627 -0.2915  1.2977
11792SOL     OW36816   0.468   3.779   9.535  0.4165 -0.2419  0.5604
11792SOL    HW136817   0.461   3.850   9.600 -0.0924 -0.5020  0.7973
11792SOL    HW236818   0.465   3.699   9.588  3.0491 -0.4699  0.5107
11793SOL     OW36819   3.678   4.183  11.406 -0.3188  0.0224 -0.1611
11793SOL    HW136820   3.693   4.278  11.406  2.0393 -0.2989 -1.0738
11793SOL    HW236821   3.583   4.174  11.420 -0.6363  2.5027 -0.2905
11794SOL     OW36822   4.888   2.615   3.280 -0.2232  0.3748  0.3155
11794SOL    HW136823   4.919   2.527   3.301  0.3857  0.4315 -0.3010
11794SOL    HW236824   4.861   2.609   3.188  1.2042  1.1759 -0.1954
11795SOL     OW36825   7.316   4.028   0.429 -0.1483  0.2939 -0.2447
11795SOL    HW136826   7.350   4.115   0.450  2.8069 -0.4921 -1.3682
11795SOL    HW236827   7.378   3.992   0.366 -0.2346 -3.3834  1.5376
11796SOL     OW36828   7.851   5.668   9.794  0.2052  0.2659  0.2710
11796SOL    HW136829   7.836   5.575   9.811 -2.0179  0.1629 -1.7201
11796SOL    HW236830   7.767   5.710   9.811  0.6150  1.5927 -0.8049
11797SOL     OW36831   0.259   7.198   2.555  0.3444  0.1508 -0.0480
11797SOL    HW136832   0.329   7.262   2.547  0.4310  0.1716  0.8192
11797SOL    HW236833   0.182   7.241   2.518  0.6479  0.3442 -0.4637
11798SOL     OW36834   3.840   0.730   3.487 -0.4428  0.3794 -0.4333
11798SOL    HW136835   3.888   0.655   3.452 -3.5533 -1.1755 -1.7490
11798SOL    HW236836   3.823   0.708   3.579 -0.2489  0.0600 -0.4747
11799SOL     OW36837   7.838   7.373  12.198  0.5433 -0.5673 -0.6040
11799SOL    HW136838   7.835   7.281  12.172  1.6686 -1.0952  0.9930
11799SOL    HW236839   7.929   7.388  12.224  0.2357  0.8368 -0.2496
11800SOL     OW36840   4.949   3.140   0.944 -0.0979  0.0167  0.3447
11800SOL    HW136841   5.044   3.142   0.936 -0.0274 -0.0745  1.1169
11800SOL    HW236842   4.919   3.210   0.886  0.3305 -1.1415 -1.3417
11801SOL     OW36843   4.024   6.562   2.426 -0.0902  0.1875 -0.2742
11801SOL    HW136844   3.954   6.619   2.396  0.2202 -0.7596 -3.0196
11801SOL    HW236845   4.101   6.620   2.432 -0.5730  0.7702  0.6652
11802SOL     OW36846   0.293   1.367   5.013 -0.4272  0.0747 -0.0811
11802SOL    HW136847   0.312   1.417   4.933  1.9245 -1.7157 -0.7781
11802SOL    HW236848   0.199   1.351   5.010 -0.7870  2.1016 -1.2197
11803SOL     OW36849   0.405   5.550   1.559 -0.1116  0.2689  0.1643
11803SOL    HW136850   0.399   5.639   1.523 -0.4964  0.5828  0.9835
11803SOL    HW236851   0.385   5.560   1.652  2.1647 -0.3327  0.7771
11804SOL     OW36852   1.687   0.884   1.100  0.0228 -0.0752  0.3614
11804SOL    HW136853   1.716   0.975   1.103 -0.6422  0.1344  0.5803
11804SOL    HW236854   1.677   0.865   1.006  2.5101 -0.7039  0.1568
11805SOL     OW36855   5.587   5.668  11.837 -0.1542 -0.5815 -0.0526
11805SOL    HW136856   5.557   5.580  11.817 -1.9822  0.1700 -0.8322
11805SOL    HW236857   5.532   5.725  11.784  0.3068  1.0984  1.1778
11806SOL     OW36858   7.404   6.066  10.317  0.1034 -0.0981 -0.6529
11806SOL    HW136859   7.427   6.032  10.231  2.0861 -1.2447  0.2405
11806SOL    HW236860   7.445   6.005  10.378 -3.1436 -0.6575  1.1980
11807SOL     OW36861   3.499   7.479   8.456  0.1545 -0.4366  0.3052
11807SOL    HW136862   3.457   7.481   8.369  1.6411 -0.3182 -0.4467
11807SOL    HW236863   3.435   7.435   8.512  0.0651 -2.6313 -1.3672
11808SOL     OW36864   3.698   6.384   3.460  0.0285 -0.2724 -0.2821
11808SOL    HW136865   3.687   6.391   3.365 -1.5957  0.3540 -0.0766
11808SOL    HW236866   3.642   6.453   3.496  0.7884 -0.3541  1.1350
11809SOL     OW36867   0.507   5.016   3.202  0.3904  0.2431  0.0986
11809SOL    HW136868   0.447   5.067   3.147  0.3919 -1.9243 -2.0755
11809SOL    HW236869   0.503   5.058   3.287 -1.2153  2.5357 -1.0080
11810SOL     OW36870   1.427   4.775   3.888  0.0385  0.5344 -0.2691
11810SOL    HW136871   1.401   4.867   3.896  0.3287  0.5880  0.0839
11810SOL    HW236872   1.485   4.760   3.963  1.3238  0.5243 -1.2236
11811SOL     OW36873   4.880   4.309  11.966  0.0458  0.4039 -0.3711
11811SOL    HW136874   4.940   4.357  12.023 -1.7579  1.7965  0.4630
11811SOL    HW236875   4.848   4.237  12.021  1.4298 -0.8164 -1.0639
11812SOL     OW36876   1.334   1.530  11.056 -0.6109  0.2818  0.0000
11812SOL    HW136877   1.296   1.608  11.095  0.0225  0.5895  0.0055
11812SOL    HW236878   1.379   1.486  11.128 -2.8521 -1.3144  0.5504
11813SOL     OW36879   1.117   6.888   8.553  0.1353  0.1641 -0.3845
11813SOL    HW136880   1.071   6.827   8.611 -0.3252  1.5112  0.7120
11813SOL    HW236881   1.137   6.836   8.475 -0.4651 -1.3089  0.4032
11814SOL     OW36882   6.964   1.272   8.040  0.1537  0.0389  0.3522
11814SOL    HW136883   6.986   1.363   8.023 -0.8077  0.4874  1.3384
11814SOL    HW236884   7.005   1.252   8.124  1.7269 -0.9779 -0.5969
11815SOL     OW36885   6.390   6.445   9.795 -0.0667  0.5231  0.2772
11815SOL    HW136886   6.370   6.367   9.743 -1.7505  0.2536  1.2608
11815SOL    HW236887   6.437   6.412   9.871  1.2876  0.7749 -0.4181
11816SOL     OW36888   1.867   1.006   3.504 -0.1679 -0.0806  0.5085
11816SOL    HW136889   1.939   1.006   3.567  0.8514  0.7505 -0.6093
11816SOL    HW236890   1.870   0.918   3.466 -0.1376 -0.2501  0.8966
11817SOL     OW36891   5.351   4.502  10.911 -0.0285 -0.3488  0.3364
11817SOL    HW136892   5.420   4.496  10.977  1.3974  0.8697 -0.9743
11817SOL    HW236893   5.310   4.587  10.926  1.2103  0.5614 -1.1226
11818SOL     OW36894   4.897   4.906   8.660  0.2747 -0.2545 -0.0293
11818SOL    HW136895   4.974   4.941   8.616  0.5149 -0.8528 -0.0976
11818SOL    HW236896   4.824   4.953   8.621  0.7464  2.4559  2.0807
11819SOL     OW36897   3.655   2.818   6.721 -0.4202  0.0865 -0.3091
11819SOL    HW136898   3.683   2.860   6.802  0.4789 -0.2617 -0.4257
11819SOL    HW236899   3.730   2.765   6.694 -0.3031  0.9767 -1.9042
11820SOL     OW36900   0.941   2.502  11.367  0.2830  0.0111  0.2404
11820SOL    HW136901   0.991   2.551  11.301 -0.8022  0.1680 -0.4818
11820SOL    HW236902   1.003   2.491  11.439  1.1441  0.8187 -0.3383
11821SOL     OW36903   1.850   7.909   3.943 -0.2136 -0.1363 -0.3967
11821SOL    HW136904   1.857   7.921   3.849  0.3114 -2.6022 -0.7550
11821SOL    HW236905   1.913   7.839   3.962  1.5457  1.9388  2.1963
11822SOL     OW36906   3.983   7.468   6.025 -0.4876  0.0564 -0.0018
11822SOL    HW136907   3.915   7.518   5.979  0.7173  1.5937 -0.1868
11822SOL    HW236908   4.026   7.418   5.956 -0.8830 -0.2562 -0.0201
11823SOL     OW36909   4.056   2.089   6.828 -0.7150  0.4146  0.3085
11823SOL    HW136910   4.140   2.117   6.789 -0.5437 -2.2688 -1.5267
11823SOL    HW236911   3.990   2.120   6.766 -1.2036  2.7300  1.8708
11824SOL     OW36912   1.455   6.118   5.660 -0.3856  0.3991  0.3433
11824SOL    HW136913   1.364   6.129   5.686  0.1026  1.6430  1.6170
11824SOL    HW236914   1.486   6.206   5.641  0.1659 -0.1446 -1.5811
11825SOL     OW36915   2.246   6.131   3.827  0.4460  0.2131  0.6386
11825SOL    HW136916   2.238   6.043   3.862  0.2732  0.7148  1.9166
11825SOL    HW236917   2.236   6.121   3.732  0.6809 -1.1562  0.7437
11826SOL     OW36918   3.923   1.426   0.902  0.6686  0.1352  0.4557
11826SOL    HW136919   3.867   1.366   0.952  2.2796  0.0403  2.2567
11826SOL    HW236920   3.885   1.513   0.917 -0.0760 -0.1094  0.0716
11827SOL     OW36921   1.663   1.986   1.228  0.3264  0.1947 -0.2521
11827SOL    HW136922   1.731   1.924   1.252  0.7969  0.3113 -1.2555
11827SOL    HW236923   1.584   1.933   1.220  0.7516 -0.3106 -1.2284
11828SOL     OW36924   7.562   2.432   0.789 -0.1211  0.0953  0.8467
11828SOL    HW136925   7.534   2.452   0.879 -0.8386 -0.2286  0.7028
11828SOL    HW236926   7.551   2.514   0.741 -0.6342  0.0222  0.8386
11829SOL     OW36927   3.801   7.006   6.231 -0.1755  0.1351 -0.0366
11829SOL    HW136928   3.822   6.967   6.316 -1.0814  0.4740  0.3556
11829SOL    HW236929   3.712   6.976   6.213  0.5653 -1.2545 -1.6481
11830SOL     OW36930   4.239   5.889  10.035  0.5172  0.2792  0.6490
11830SOL    HW136931   4.187   5.953   9.986 -1.1124 -1.6086 -0.2263
11830SOL    HW236932   4.312   5.867   9.978  1.1277  1.3472  0.9830
11831SOL     OW36933   3.531   7.181   5.159 -0.2261  0.0233 -0.1499
11831SOL    HW136934   3.526   7.156   5.067  0.1460 -0.7887  0.0413
11831SOL    HW236935   3.496   7.105   5.207 -2.2599  1.1736  0.3069
11832SOL     OW36936   7.771   2.014  10.958 -0.5507  0.6488  0.7883
11832SOL    HW136937   7.856   2.013  10.915 -1.3068  0.4612 -0.7970
11832SOL    HW236938   7.780   2.078  11.028  0.1298  2.6890 -1.0400
11833SOL     OW36939   3.178   0.176  10.876 -0.6846  0.2747 -0.1955
11833SOL    HW136940   3.222   0.194  10.959 -1.1556 -1.0495  0.3663
11833SOL    HW236941   3.165   0.263  10.837  0.4624  0.8434  0.6205
11834SOL     OW36942   7.092   6.366   5.157  0.0423 -0.3508  0.1696
11834SOL    HW136943   7.065   6.388   5.068  0.2795 -1.7822 -0.2939
11834SOL    HW236944   7.014   6.381   5.211 -0.6579 -1.1337 -0.5902
11835SOL     OW36945   3.759   6.364   8.527  0.1025 -0.3656  0.3493
11835SOL    HW136946   3.733   6.439   8.581  1.5472  0.0988  0.4522
11835SOL    HW236947   3.681   6.309   8.523 -0.1596 -0.2435  2.6205
11836SOL     OW36948   6.578   2.411   9.674  0.3929  0.2404  0.2355
11836SOL    HW136949   6.671   2.420   9.650  0.5484  2.3249  1.3451
11836SOL    HW236950   6.573   2.326   9.716  1.8064  0.0595  0.1117
11837SOL     OW36951   1.216   7.517   5.946 -0.0551 -0.7086  0.5344
11837SOL    HW136952   1.168   7.477   6.018 -2.3610  0.6697 -0.1302
11837SOL    HW236953   1.156   7.583   5.911  1.4740 -0.4656 -1.8533
11838SOL     OW36954   5.674   0.622   9.377  0.7200  0.5275 -0.5383
11838SOL    HW136955   5.725   0.664   9.446  0.6574 -0.6517  0.2564
11838SOL    HW236956   5.737   0.606   9.307  0.8669  1.3824 -0.6168
11839SOL     OW36957   5.886   7.847   2.161 -0.1643  0.5374 -0.0980
11839SOL    HW136958   5.845   7.934   2.158 -1.7001 -0.0541  1.5144
11839SOL    HW236959   5.853   7.809   2.243  2.9857 -0.3577  0.8792
11840SOL     OW36960   1.016   7.677   9.490  0.0035 -0.2466 -0.2345
11840SOL    HW136961   1.096   7.691   9.541  0.3427  1.2357 -1.1088
11840SOL    HW236962   1.031   7.594   9.445 -0.4075 -1.7363  2.1824
11841SOL     OW36963   6.775   6.669   7.333 -0.6182  0.6980 -0.3297
11841SOL    HW136964   6.790   6.761   7.355  0.2967  0.8214 -1.3260
11841SOL    HW236965   6.711   6.639   7.396 -0.8440  1.9928  0.0935
11842SOL     OW36966   7.762   1.431   2.167 -0.0210  0.0124  0.0478
11842SOL    HW136967   7.803   1.352   2.132 -1.5209 -1.2813  1.0594
11842SOL    HW236968   7.825   1.464   2.232  0.5763 -0.4143 -0.3052
11843SOL     OW36969   2.829   3.094  12.373  0.3331  0.5407  0.0650
11843SOL    HW136970   2.758   3.101  12.437 -0.4772 -0.9424 -0.6255
11843SOL    HW236971   2.902   3.056  12.422 -0.2990 -0.6375  0.1152
11844SOL     OW36972   3.451   4.783   8.135 -0.1886  0.0788 -0.0546
11844SOL    HW136973   3.543   4.806   8.123  0.3641 -1.7680  0.2573
11844SOL    HW236974   3.402   4.850   8.087  1.3161  0.9860 -0.3697
11845SOL     OW36975   4.494   2.980   7.005  0.2160 -0.1062 -0.2590
11845SOL    HW136976   4.508   2.901   6.952  0.9437 -0.0485 -0.1630
11845SOL    HW236977   4.435   2.952   7.075  1.0661 -0.7534  0.2017
11846SOL     OW36978   6.806   7.037   0.230  0.7328  0.3021 -0.0908
11846SOL    HW136979   6.836   7.117   0.273  1.1717 -0.5085  1.1560
11846SOL    HW236980   6.736   7.066   0.172 -0.7668  1.3094  2.0989
11847SOL     OW36981   0.133   3.837   8.095  0.1791 -0.0677  0.5765
11847SOL    HW136982   0.068   3.903   8.070 -0.3888  0.3471  2.8963
11847SOL    HW236983   0.123   3.768   8.030 -2.3087  0.1864  0.5930
11848SOL     OW36984   7.353   3.809   4.322  0.4572 -0.1009 -0.6033
11848SOL    HW136985   7.398   3.741   4.371  0.0831 -0.4394 -0.7269
11848SOL    HW236986   7.357   3.886   4.379  0.4630 -0.3535 -0.2602
11849SOL     OW36987   1.530   2.793  11.182 -0.2149 -0.0123  0.5041
11849SOL    HW136988   1.625   2.783  11.182 -0.3100 -1.0669  0.6843
11849SOL    HW236989   1.512   2.851  11.256  0.4430  2.3251 -1.0487
11850SOL     OW36990   6.992   4.900  11.704 -0.4886  0.0591 -0.4067
11850SOL    HW136991   7.000   4.989  11.738 -0.5239  0.7306 -2.0508
11850SOL    HW236992   6.900   4.893  11.677  0.0195  0.3903 -2.4173
11851SOL     OW36993   1.222   2.460  10.261 -0.2837 -0.3505 -0.2104
11851SOL    HW136994   1.227   2.367  10.239 -0.8027 -0.2111 -0.9862
11851SOL    HW236995   1.150   2.466  10.323 -0.3533 -0.4501 -0.2801
11852SOL     OW36996   1.795   0.951  10.080  0.6407 -0.6105  0.2252
11852SOL    HW136997   1.873   0.898  10.066 -0.2036 -1.9328  0.3881
11852SOL    HW236998   1.732   0.891  10.120  0.1312  0.8831  1.8012
11853SOL     OW36999   5.303   5.160   4.853  0.3194 -0.2012  0.0126
11853SOL    HW137000   5.276   5.069   4.864  0.8178 -0.4074 -0.4070
11853SOL    HW237001   5.273   5.205   4.933 -1.3338 -0.3827 -0.4712
11854SOL     OW37002   6.585   1.068  10.817 -0.5692 -0.0266  0.0357
11854SOL    HW137003   6.593   1.163  10.807 -1.1786  0.2019  1.5444
11854SOL    HW237004   6.675   1.036  10.819 -0.2816  0.8146  2.0484
11855SOL     OW37005   2.329   1.865  10.757  0.7690  0.5162  0.3510
11855SOL    HW137006   2.363   1.776  10.744 -1.7983 -0.6677  1.0328
11855SOL    HW237007   2.280   1.860  10.840 -1.3528  1.8911 -0.7224
11856SOL     OW37008   1.880   2.989   2.427  0.3534  0.4550  0.3780
11856SOL    HW137009   1.833   2.997   2.344  0.0646  0.7963  0.5691
11856SOL    HW237010   1.943   2.919   2.412  0.5235  0.7277 -0.2375
11857SOL     OW37011   3.973   7.145   1.056  0.0178  0.7872 -0.1149
11857SOL    HW137012   3.924   7.087   0.998  0.2639  0.6813 -0.2208
11857SOL    HW237013   3.931   7.135   1.141  2.1251 -2.2275  0.7603
11858SOL     OW37014   7.558   3.863   2.109 -0.3914 -0.2879  0.1642
11858SOL    HW137015   7.572   3.947   2.152 -1.5136 -0.2776  0.5542
11858SOL    HW237016   7.624   3.805   2.146  0.5108  0.4515 -0.2381
11859SOL     OW37017   2.772   1.294   8.271 -0.1740 -0.0131  0.1816
11859SOL    HW137018   2.778   1.326   8.362  0.8543  0.8987 -0.1876
11859SOL    HW237019   2.775   1.199   8.279  0.5779  0.0729  1.0708
11860SOL     OW37020   0.479   1.918   3.312  0.1057  0.1785 -0.3456
11860SOL    HW137021   0.533   1.846   3.280 -0.4276 -1.0747  1.3868
11860SOL    HW237022   0.476   1.980   3.240  1.2767 -1.1492 -1.6051
11861SOL     OW37023   5.300   7.728   9.010  0.5309  0.5668  0.0431
11861SOL    HW137024   5.215   7.730   8.965  2.0923  0.0533 -3.2164
11861SOL    HW237025   5.329   7.638   9.000  0.0456 -0.2608  4.3189
11862SOL     OW37026   2.790   6.396   3.789  0.5849 -0.1212 -0.1669
11862SOL    HW137027   2.869   6.440   3.820  1.4955 -1.6729 -0.1755
11862SOL    HW237028   2.723   6.464   3.788  2.0823  1.3932 -0.8373
11863SOL     OW37029   6.294   3.312   7.230  0.4014  0.4275  0.5426
11863SOL    HW137030   6.245   3.369   7.289 -0.2676 -0.8010  1.2094
11863SOL    HW237031   6.227   3.261   7.184  0.9975 -0.2181  0.3638
11864SOL     OW37032   3.722   6.852   7.602  0.6752  0.3049 -0.2154
11864SOL    HW137033   3.790   6.900   7.554  0.4622  2.0614  1.1215
11864SOL    HW237034   3.663   6.920   7.634 -0.3854 -0.9842  0.6783
11865SOL     OW37035   7.760   5.357   2.296  0.1544  0.3236 -0.2702
11865SOL    HW137036   7.812   5.337   2.374  0.4856 -0.1282 -0.6005
11865SOL    HW237037   7.825   5.385   2.231  0.0219 -0.4890 -0.7665
11866SOL     OW37038   6.741   5.724   0.874 -0.2373  0.0754  0.3940
11866SOL    HW137039   6.672   5.666   0.842  0.3103 -0.7109  0.5941
11866SOL    HW237040   6.698   5.777   0.941 -1.2059  1.2105 -1.0555
11867SOL     OW37041   0.378   0.524   5.751  0.5068  0.1645 -0.3597
11867SOL    HW137042   0.332   0.582   5.691 -0.4438 -0.6525 -0.4405
11867SOL    HW237043   0.439   0.474   5.696 -0.6900 -0.9144 -0.7503
11868SOL     OW37044   3.736   7.467   8.267 -0.0309 -0.2497 -0.7154
11868SOL    HW137045   3.687   7.516   8.201  0.3373 -0.1395 -0.9045
11868SOL    HW237046   3.710   7.507   8.351  0.3935  0.3731 -0.8782
11869SOL     OW37047   5.162   2.959   1.049  0.3036  0.2678  0.3512
11869SOL    HW137048   5.211   2.926   1.125 -0.5418 -0.0267  0.7841
11869SOL    HW237049   5.220   2.944   0.975 -0.2058 -2.7511  0.4229
11870SOL     OW37050   4.163   0.302  10.165 -0.1952 -0.5554  0.7528
11870SOL    HW137051   4.149   0.278  10.257  0.2022 -0.9319  0.7117
11870SOL    HW237052   4.243   0.257  10.139  0.9596  1.3084  0.8703
11871SOL     OW37053   4.286   1.659   5.735  0.7303  0.5518 -0.6923
11871SOL    HW137054   4.251   1.573   5.756  1.3618  0.4891  0.1583
11871SOL    HW237055   4.336   1.685   5.813 -1.4374  2.7760  0.0705
11872SOL     OW37056   2.588   3.267   6.879 -0.1239 -0.1812 -0.5403
11872SOL    HW137057   2.641   3.187   6.874 -0.0422 -0.2869  1.3512
11872SOL    HW237058   2.515   3.244   6.936 -1.0812  0.5951 -1.4130
11873SOL     OW37059   3.753   1.047   8.325  0.2105 -0.1520 -0.0781
11873SOL    HW137060   3.747   0.953   8.310  3.4731 -0.6015  0.8764
11873SOL    HW237061   3.684   1.066   8.389 -1.3130 -1.5937 -1.2047
11874SOL     OW37062   0.762   5.721  12.200  0.2221  0.2442  0.0793
11874SOL    HW137063   0.728   5.640  12.239  0.4307 -0.2174 -0.6849
11874SOL    HW237064   0.732   5.718  12.109  0.0044  1.1606  0.1111
11875SOL     OW37065   7.498   6.096   1.774 -0.5263  0.8468 -1.0780
11875SOL    HW137066   7.521   6.123   1.686 -1.7123  3.0461 -0.7815
11875SOL    HW237067   7.415   6.140   1.792 -2.3642 -2.5547 -0.2436
11876SOL     OW37068   2.307   2.117   3.420 -0.3868  0.4824  0.1731
11876SOL    HW137069   2.351   2.107   3.505 -0.7254 -0.0008  0.2932
11876SOL    HW237070   2.344   2.048   3.366 -0.3969  0.5980  0.0191
11877SOL     OW37071   4.717   7.001   2.194  0.3739 -0.1672  0.3050
11877SOL    HW137072   4.784   7.068   2.188  0.2306 -0.1254 -1.1618
11877SOL    HW237073   4.635   7.048   2.179  0.2065 -0.5420  0.0333
11878SOL     OW37074   2.113   5.839   9.523  0.1676  0.1276  0.4123
11878SOL    HW137075   2.189   5.824   9.467  0.9306 -0.3897  1.5533
11878SOL    HW237076   2.039   5.806   9.472  1.0071 -1.5729  0.2105
11879SOL     OW37077   3.451   3.422   2.366 -0.5013 -0.2234 -0.6302
11879SOL    HW137078   3.536   3.378   2.361 -0.2539  0.2866 -1.0627
11879SOL    HW237079   3.388   3.358   2.334 -0.3874 -0.8634  0.3659
11880SOL     OW37080   7.827   0.100   9.285  0.7447 -0.3775 -0.0764
11880SOL    HW137081   7.761   0.052   9.335  0.3605 -0.3552 -0.5660
11880SOL    HW237082   7.874   0.032   9.237 -0.7952 -0.1689 -1.9782
11881SOL     OW37083   1.994   1.223   9.427  0.0160  0.3737 -0.7445
11881SOL    HW137084   2.045   1.272   9.491 -1.0008  2.5447 -1.4902
11881SOL    HW237085   1.904   1.251   9.441 -0.3407  0.2685 -2.5325
11882SOL     OW37086   6.821   6.913   6.461  0.1536 -0.3036 -0.1837
11882SOL    HW137087   6.795   6.924   6.552  0.0431  0.3455 -0.2884
11882SOL    HW237088   6.912   6.941   6.459 -0.3600  1.4818 -0.6066
11883SOL     OW37089   0.331   0.287   0.264 -0.8750  0.0465  0.2565
11883SOL    HW137090   0.345   0.379   0.289 -1.5518 -0.1758  1.5785
11883SOL    HW237091   0.251   0.289   0.211 -0.5254  0.2869 -0.2730
11884SOL     OW37092   0.293   7.644   0.858  0.3141  0.2525  0.0431
11884SOL    HW137093   0.320   7.585   0.929 -0.4090  0.4461  0.4884
11884SOL    HW237094   0.375   7.669   0.815  1.0112  1.7471  2.0761
11885SOL     OW37095   4.501   4.174   1.808  0.0205  0.0099 -0.9681
11885SOL    HW137096   4.486   4.184   1.902 -1.7334 -0.0248 -1.2181
11885SOL    HW237097   4.549   4.091   1.801  0.2061  0.0275 -0.1084
11886SOL     OW37098   6.781   0.555   5.127 -0.4088  0.2053 -0.1804
11886SOL    HW137099   6.723   0.627   5.153 -0.8857  0.0812 -0.8571
11886SOL    HW237100   6.743   0.477   5.168  0.2870  0.3759  0.8094
11887SOL     OW37101   0.553   2.464   7.306  0.1296  0.0783 -0.3563
11887SOL    HW137102   0.459   2.482   7.298  0.0349 -0.4292 -0.4437
11887SOL    HW237103   0.566   2.383   7.257  0.5445 -0.0700 -0.0095
11888SOL     OW37104   7.667   1.172   0.445  0.1515  0.2892 -0.4054
11888SOL    HW137105   7.680   1.131   0.531  0.4090 -0.2816 -0.7074
11888SOL    HW237106   7.718   1.253   0.448 -0.8578  0.9127  0.4223
11889SOL     OW37107   6.560   6.398   1.994  0.4203 -0.3109 -0.3189
11889SOL    HW137108   6.487   6.370   1.939 -0.7016  2.8279 -0.6339
11889SOL    HW237109   6.547   6.351   2.076 -1.7581 -0.1674 -0.5296
11890SOL     OW37110   5.393   7.494   8.662  0.0464 -0.0798 -0.3865
11890SOL    HW137111   5.360   7.474   8.750  0.2165  0.9502 -0.0842
11890SOL    HW237112   5.339   7.440   8.604 -1.7821  1.0909  0.1444
11891SOL     OW37113   1.603   5.680  10.531  0.4184  0.2483  0.0244
11891SOL    HW137114   1.689   5.720  10.518  0.4016  0.5484  0.7739
11891SOL    HW237115   1.617   5.617  10.602 -0.0729  0.6306  0.4727
11892SOL     OW37116   6.812   1.302   1.780 -0.6477  0.0836 -0.5176
11892SOL    HW137117   6.736   1.257   1.744 -1.0639  0.2022  0.1994
11892SOL    HW237118   6.783   1.336   1.864  0.1578  0.2552 -0.2951
11893SOL     OW37119   4.707   7.186   1.651  0.1863 -0.0849 -0.1687
11893SOL    HW137120   4.711   7.261   1.593  2.5686  0.6006  0.7472
11893SOL    HW237121   4.614   7.164   1.656 -0.4712  2.1522 -1.2560
11894SOL     OW37122   1.039   1.650   8.425  0.1159 -0.8286 -0.5782
11894SOL    HW137123   1.017   1.701   8.503  0.6753  0.6681 -1.3603
11894SOL    HW237124   1.013   1.706   8.352 -0.2869 -2.1526 -1.4865
11895SOL     OW37125   4.532   2.705  12.274 -0.6562 -0.2740  0.3747
11895SOL    HW137126   4.465   2.677  12.212 -0.7045  0.4327  0.1046
11895SOL    HW237127   4.608   2.651  12.252 -0.8317 -0.3929  0.0463
11896SOL     OW37128   3.964   6.286  10.913 -0.5826  0.3637 -0.2662
11896SOL    HW137129   3.966   6.318  11.003  1.6768  1.8787 -0.7673
11896SOL    HW237130   3.976   6.191  10.921  1.5515  0.6570  1.0451
11897SOL     OW37131   3.881   6.659   0.635 -0.4581  0.1275  0.0937
11897SOL    HW137132   3.890   6.738   0.583  1.6191 -0.1950 -0.1414
11897SOL    HW237133   3.838   6.596   0.577  0.8539  0.1019 -0.8990
11898SOL     OW37134   5.776   3.676  11.161 -0.6021 -0.1013 -0.5806
11898SOL    HW137135   5.772   3.629  11.078  0.4689  0.1331 -0.7751
11898SOL    HW237136   5.822   3.615  11.220 -2.3536 -0.7446  0.1879
11899SOL     OW37137   7.540   0.170  12.094  0.2032  0.2010  0.1607
11899SOL    HW137138   7.549   0.123  12.177  0.4969 -1.4418 -0.7637
11899SOL    HW237139   7.621   0.221  12.087  0.3596  0.0391  0.6884
11900SOL     OW37140   2.996   6.142   8.355 -0.3653  0.1259  0.5889
11900SOL    HW137141   2.934   6.173   8.289  0.6544  3.1052  0.8747
11900SOL    HW237142   2.980   6.198   8.432 -2.0698 -3.7072  3.3444
11901SOL     OW37143   7.255   4.733  10.763 -0.5191 -0.2711 -0.4974
11901SOL    HW137144   7.288   4.757  10.677 -1.3871  1.7007 -0.3359
11901SOL    HW237145   7.184   4.670  10.746 -0.7200  0.1499 -1.2321
11902SOL     OW37146   7.485   4.215   3.575 -0.4592 -0.3306 -0.6512
11902SOL    HW137147   7.565   4.170   3.548 -1.3763 -0.4282 -3.5407
11902SOL    HW237148   7.414   4.170   3.529 -1.9199  1.3085 -0.1598
11903SOL     OW37149   3.076   2.671   3.911  0.5302  0.2928  0.1619
11903SOL    HW137150   3.115   2.601   3.963  0.6611  0.0976 -0.1945
11903SOL    HW237151   2.982   2.659   3.921  0.5203 -0.8353 -1.0618
11904SOL     OW37152   2.925   5.741  11.015 -0.0628 -0.1389  0.3366
11904SOL    HW137153   2.935   5.813  10.953 -0.8496  1.6541  2.1666
11904SOL    HW237154   2.860   5.684  10.974  0.5221  0.1839 -1.1281
11905SOL     OW37155   2.971   5.509  10.558 -0.2283 -0.6492  0.3963
11905SOL    HW137156   2.974   5.537  10.650  1.6896  1.1411 -0.1568
11905SOL    HW237157   2.972   5.413  10.563  0.1735 -0.5900  2.2433
11906SOL     OW37158   4.741   0.787   1.513 -0.0326  0.2680 -0.2986
11906SOL    HW137159   4.743   0.692   1.528  1.0523  0.3169 -0.0302
11906SOL    HW237160   4.703   0.823   1.593 -0.0265  0.0947 -0.2168
11907SOL     OW37161   0.618   2.935   6.570  0.4193  0.2362 -0.2177
11907SOL    HW137162   0.608   2.858   6.626 -2.0447  0.1107 -0.7119
11907SOL    HW237163   0.672   2.905   6.497  2.2813 -0.0466  1.2082
11908SOL     OW37164   3.204   7.693   1.152 -0.4258 -0.3244  0.0189
11908SOL    HW137165   3.256   7.768   1.182 -0.1699 -0.6132  0.3057
11908SOL    HW237166   3.179   7.715   1.063 -3.4169  1.7514  1.1944
11909SOL     OW37167   0.900   6.514   1.426 -0.3334  0.0506 -0.1575
11909SOL    HW137168   0.930   6.423   1.427  2.0265  0.7257 -1.3172
11909SOL    HW237169   0.939   6.553   1.504  1.4314  0.7877 -1.3479
11910SOL     OW37170   6.733   2.733   9.459  0.1808  0.3131  0.1071
11910SOL    HW137171   6.651   2.731   9.409  0.9841  0.4184 -1.2628
11910SOL    HW237172   6.746   2.826   9.478 -0.0676  0.2850  0.4257
11911SOL     OW37173   2.922   7.572  11.544  0.1987  0.0388  0.6640
11911SOL    HW137174   2.841   7.526  11.565 -0.3692  1.3245  1.3512
11911SOL    HW237175   2.895   7.658  11.514  1.2732  0.1193 -0.1566
11912SOL     OW37176   5.448   0.304   6.458 -0.4620 -0.0400  0.2586
11912SOL    HW137177   5.414   0.276   6.373 -1.0417  1.0677  0.1126
11912SOL    HW237178   5.411   0.391   6.471  0.9001  0.4699  0.9170
11913SOL     OW37179   3.745   1.704   0.269  0.3133  0.5418  0.0498
11913SOL    HW137180   3.690   1.629   0.292  1.0143 -0.0464 -0.1586
11913SOL    HW237181   3.795   1.675   0.193  0.2386  1.3982 -0.3359
11914SOL     OW37182   6.664   1.724   3.337 -0.1032 -0.0020 -0.0207
11914SOL    HW137183   6.735   1.695   3.394  1.2293  0.0415 -1.6101
11914SOL    HW237184   6.643   1.647   3.284  0.1513  0.5386 -0.9335
11915SOL     OW37185   1.817   0.848   8.703 -0.2090  0.0252  0.2227
11915SOL    HW137186   1.810   0.835   8.609 -0.2383 -1.9300  0.4656
11915SOL    HW237187   1.841   0.941   8.713  2.0076 -0.2441 -1.7923
11916SOL     OW37188   6.790   6.250   4.856  0.1291  0.1824  0.4386
11916SOL    HW137189   6.705   6.228   4.894  1.1928 -1.2002  2.1871
11916SOL    HW237190   6.824   6.166   4.826  0.3507  0.9143 -1.5206
11917SOL     OW37191   4.969   2.814   5.683  0.2530 -0.5042 -0.1533
11917SOL    HW137192   4.902   2.758   5.722  0.8141 -0.6311  0.6658
11917SOL    HW237193   4.923   2.892   5.656 -0.1833 -0.4567  0.6886
11918SOL     OW37194   5.779   7.699   5.168  0.4093  0.0508 -0.0173
11918SOL    HW137195   5.684   7.688   5.167  0.2792  1.0814 -0.5831
11918SOL    HW237196   5.813   7.616   5.202 -0.6577 -0.5350 -0.3553
11919SOL     OW37197   5.350   6.712  11.352  0.1417  0.0157 -0.1611
11919SOL    HW137198   5.352   6.665  11.435  1.0636  1.1532  0.4893
11919SOL    HW237199   5.409   6.787  11.365 -1.8392  1.8090 -0.8527
11920SOL     OW37200   7.826   0.449   9.851  0.1231 -0.1778  0.3122
11920SOL    HW137201   7.782   0.427   9.769  0.2808  0.7042 -0.0164
11920SOL    HW237202   7.785   0.531   9.879  2.0780  1.1060 -0.4143
11921SOL     OW37203   0.079   4.008   4.642  0.1517  0.3072  0.7948
11921SOL    HW137204   0.081   3.971   4.554  0.8667  1.2817  0.3959
11921SOL    HW237205   0.111   3.937   4.698 -0.0431 -0.2244  0.2428
11922SOL     OW37206   2.202   2.700   0.573 -0.1549  0.0432 -0.1399
11922SOL    HW137207   2.273   2.759   0.546 -0.1160 -0.4250 -1.1345
11922SOL    HW237208   2.247   2.625   0.611 -0.1124 -0.2322 -0.7261
11923SOL     OW37209   0.090   4.788  12.105 -0.2067 -0.3432 -0.5307
11923SOL    HW137210   0.015   4.847  12.099 -0.3720 -0.3656  0.9478
11923SOL    HW237211   0.167   4.846  12.100 -0.3660  0.0083  0.8079
11924SOL     OW37212   0.748   5.706   7.838 -0.1716 -0.1083  0.3054
11924SOL    HW137213   0.686   5.652   7.887 -0.3748  0.9673  1.2733
11924SOL    HW237214   0.791   5.760   7.904  1.3536 -0.3839 -0.4262
11925SOL     OW37215   7.972   4.637   9.606 -0.2553 -0.3797  0.4264
11925SOL    HW137216   8.066   4.623   9.590 -0.4030 -0.6656 -0.2351
11925SOL    HW237217   7.958   4.602   9.694  0.6331  1.4267  1.3367
11926SOL     OW37218   4.768   2.278   9.191  0.2970  0.4275 -0.3863
11926SOL    HW137219   4.727   2.304   9.109  2.3039 -1.3852 -2.0668
11926SOL    HW237220   4.733   2.190   9.209 -0.0688  0.7708  0.7115
11927SOL     OW37221   1.241   5.392   7.471 -0.8917  0.2122  0.2487
11927SOL    HW137222   1.156   5.353   7.451 -0.6537 -1.1457  1.5946
11927SOL    HW237223   1.228   5.435   7.556 -0.2351 -0.0940  0.5118
11928SOL     OW37224   3.546   5.280   4.137 -0.0460  0.7747  0.2475
11928SOL    HW137225   3.589   5.292   4.221  0.7948 -2.2587  0.3462
11928SOL    HW237226   3.590   5.206   4.096 -3.7001 -1.2217 -0.5783
11929SOL     OW37227   5.713   3.369  11.424 -0.5322  0.0841  0.5890
11929SOL    HW137228   5.773   3.336  11.357 -1.2070  0.5157 -0.2494
11929SOL    HW237229   5.673   3.290  11.461  0.7056 -0.2197  1.3145
11930SOL     OW37230   2.933   3.751   7.300 -0.1504  0.6888  0.1389
11930SOL    HW137231   2.915   3.733   7.392  0.5603 -1.6226 -0.1178
11930SOL    HW237232   3.028   3.753   7.294 -0.1930  0.7500 -0.5489
11931SOL     OW37233   1.722   4.285   1.906  0.4453 -0.7245  0.1217
11931SOL    HW137234   1.657   4.345   1.942 -0.0009 -0.9324 -0.3319
11931SOL    HW237235   1.749   4.326   1.824 -1.5088 -2.1945 -1.3539
11932SOL     OW37236   1.595   5.894   2.544  0.5185 -0.0660 -0.2547
11932SOL    HW137237   1.602   5.911   2.450  0.8257  1.0838 -0.0427
11932SOL    HW237238   1.543   5.814   2.551  0.8271 -0.3816 -1.4115
11933SOL     OW37239   7.330   1.275  12.278 -0.1856 -0.6045 -0.6082
11933SOL    HW137240   7.257   1.319  12.321  0.6927 -0.0905  0.4291
11933SOL    HW237241   7.340   1.193  12.326  0.1474 -0.4959 -0.4831
11934SOL     OW37242   2.416   5.850   3.372  0.0463  0.8840 -0.0232
11934SOL    HW137243   2.465   5.768   3.379  1.5530  1.7684  0.1673
11934SOL    HW237244   2.341   5.828   3.317 -0.0070 -0.8007  0.6419
11935SOL     OW37245   5.004   0.482   3.957 -0.5059 -0.5732 -0.2056
11935SOL    HW137246   4.937   0.524   3.902 -0.0054 -0.7459 -0.9663
11935SOL    HW237247   4.961   0.468   4.041 -1.1940 -0.0119 -0.4548
11936SOL     OW37248   6.082   7.343   8.581  0.2539 -0.0312 -0.0086
11936SOL    HW137249   6.162   7.307   8.543  1.1696 -0.1287  1.9398
11936SOL    HW237250   6.085   7.436   8.557  1.1971  0.0652  0.4269
11937SOL     OW37251   4.479   4.216  10.452  0.6326 -0.0654  0.4178
11937SOL    HW137252   4.471   4.285  10.386  0.3631 -0.4489  0.0472
11937SOL    HW237253   4.570   4.223  10.483  0.7252  0.1970  0.0968
11938SOL     OW37254   1.350   7.830  11.580 -0.0153  0.0300 -0.1672
11938SOL    HW137255   1.325   7.775  11.654  0.3342 -0.8818 -0.7191
11938SOL    HW237256   1.326   7.779  11.503  1.5750  0.0392 -0.7014
11939SOL     OW37257   3.677   2.846  12.191 -0.1121  0.0353 -0.7432
11939SOL    HW137258   3.654   2.928  12.148 -2.1889  0.6500  1.3462
11939SOL    HW237259   3.660   2.862  12.283  0.5697 -2.3966 -0.1302
11940SOL     OW37260   4.280   1.891   9.812  0.2837  0.2436  0.6984
11940SOL    HW137261   4.339   1.966   9.810  0.4185  0.1302  0.3739
11940SOL    HW237262   4.194   1.929   9.829  0.2760  0.5240  0.0590
11941SOL     OW37263   6.303   1.104   2.626  0.5229 -0.4200  0.2992
11941SOL    HW137264   6.294   1.195   2.654  1.3245 -0.1923 -0.1608
11941SOL    HW237265   6.229   1.090   2.566  1.2551  0.4190 -0.8535
11942SOL     OW37266   7.434   7.731   8.802  0.1036 -0.0763  0.1177
11942SOL    HW137267   7.524   7.701   8.790 -0.5762 -1.5298 -1.8950
11942SOL    HW237268   7.428   7.812   8.752 -0.1486 -0.9412 -1.2924
11943SOL     OW37269   3.842   4.424   5.859  0.1339  0.1388 -0.5155
11943SOL    HW137270   3.749   4.402   5.866  0.0499  0.8469  0.8985
11943SOL    HW237271   3.847   4.482   5.783 -0.6937  0.6471 -0.1972
11944SOL     OW37272   4.617   1.252   9.915 -0.1954 -0.6532  0.6441
11944SOL    HW137273   4.583   1.249   9.825  1.0044  1.3591  0.0666
11944SOL    HW237274   4.693   1.310   9.910  0.0403 -0.6882  2.9265
11945SOL     OW37275   2.172   7.568   6.888 -0.8431 -0.5005  0.4056
11945SOL    HW137276   2.221   7.646   6.863 -1.5404 -0.1602  0.1000
11945SOL    HW237277   2.239   7.509   6.923 -0.3796  0.4092  1.0955
11946SOL     OW37278   4.981   1.882   2.610 -1.0476  0.1205  0.9318
11946SOL    HW137279   4.928   1.803   2.605 -0.7584  0.0068 -1.0893
11946SOL    HW237280   5.012   1.896   2.521  1.2474  0.9219  1.7699
11947SOL     OW37281   7.072   4.503  10.778 -0.0200  0.0337  0.2829
11947SOL    HW137282   7.117   4.476  10.858  2.2993 -0.4940 -1.0984
11947SOL    HW237283   7.072   4.424  10.723 -0.5281  0.6760 -0.6669
11948SOL     OW37284   0.312   4.502   2.431 -0.3663 -0.2695 -0.1678
11948SOL    HW137285   0.401   4.520   2.401 -0.5170  0.0834 -0.4175
11948SOL    HW237286   0.257   4.520   2.355 -0.5739 -1.3730 -0.2874
11949SOL     OW37287   5.049   4.591   4.776 -0.4058  0.5964  0.1024
11949SOL    HW137288   5.125   4.564   4.829  0.2879  1.4948 -0.4024
11949SOL    HW237289   4.974   4.549   4.819  0.2639  0.4432  1.1752
11950SOL     OW37290   7.239   7.463  11.609  0.7341  0.4246  0.8153
11950SOL    HW137291   7.204   7.527  11.671  2.4142  0.0473  2.2542
11950SOL    HW237292   7.162   7.417  11.576 -0.2206  0.0950  3.2594
11951SOL     OW37293   3.952   0.044   4.133  0.5515  0.5989  0.6912
11951SOL    HW137294   3.857   0.037   4.141  0.5472 -0.2252  0.0363
11951SOL    HW237295   3.966   0.088   4.049  0.7318  2.5571  1.6858
11952SOL     OW37296   2.598   3.536   4.363  0.3844  0.2324  0.0823
11952SOL    HW137297   2.601   3.621   4.319  1.0187  0.3291  0.2902
11952SOL    HW237298   2.678   3.492   4.335  0.1454 -0.2252  0.1149
11953SOL     OW37299   3.907   5.806   1.777  0.1444  0.6326 -0.2694
11953SOL    HW137300   3.830   5.762   1.813  0.3304 -0.9983 -1.7397
11953SOL    HW237301   3.960   5.735   1.741  2.0627  1.7866  0.1781
11954SOL     OW37302   3.801   3.299   2.075  0.1141  0.1565 -0.1426
11954SOL    HW137303   3.886   3.257   2.063 -0.3868 -1.5342  1.6912
11954SOL    HW237304   3.772   3.320   1.986  2.3525  0.6464 -0.8195
11955SOL     OW37305   0.067   5.735   0.458  0.7879 -0.0581 -0.5216
11955SOL    HW137306   0.068   5.815   0.510  1.4217  0.4145 -1.2411
11955SOL    HW237307  -0.022   5.703   0.466  0.5420  0.6823 -0.1736
11956SOL     OW37308   2.601   6.489   2.005  0.2246 -0.4050 -0.6022
11956SOL    HW137309   2.658   6.564   2.019 -0.4292  0.2897 -1.5729
11956SOL    HW237310   2.657   6.424   1.963  0.3243  0.2708 -1.5517
11957SOL     OW37311   7.442   0.334   6.145  0.2421  0.4672 -0.0773
11957SOL    HW137312   7.454   0.330   6.050  2.1431 -1.0925  0.1556
11957SOL    HW237313   7.491   0.412   6.172  2.8818 -1.0454 -0.0920
11958SOL     OW37314   0.532   6.913   0.047 -0.0612 -0.4696 -0.1552
11958SOL    HW137315   0.612   6.905   0.100 -0.6772 -0.4872  0.7920
11958SOL    HW237316   0.465   6.870   0.100 -0.8162  0.0330 -0.7027
11959SOL     OW37317   4.753   7.536   1.891  0.4112  0.0249 -0.2999
11959SOL    HW137318   4.657   7.536   1.887  0.3493  0.4423  0.8681
11959SOL    HW237319   4.776   7.446   1.915  0.1879  0.3972  1.4166
11960SOL     OW37320   3.363   1.768   7.426 -0.1381 -0.5612 -0.4029
11960SOL    HW137321   3.343   1.732   7.512  0.6918  0.3354  0.1937
11960SOL    HW237322   3.459   1.772   7.424 -0.0796 -1.6765 -1.8480
11961SOL     OW37323   0.581   7.974   8.726 -0.1415 -0.1633  0.3836
11961SOL    HW137324   0.633   7.997   8.803  0.5610 -0.1000 -0.1001
11961SOL    HW237325   0.531   7.897   8.753 -0.2544  0.1393  1.0501
11962SOL     OW37326   4.784   4.030   0.063 -0.0416  0.0476  0.6242
11962SOL    HW137327   4.813   4.121   0.065  1.1614 -0.3009 -0.1219
11962SOL    HW237328   4.721   4.027  -0.009 -0.9412  0.5165  1.3718
11963SOL     OW37329   7.204   3.235  10.699 -0.1590 -0.0801  0.0315
11963SOL    HW137330   7.251   3.159  10.732  0.2734  0.4108  0.5543
11963SOL    HW237331   7.219   3.232  10.604  0.0933 -0.4861  0.0800
11964SOL     OW37332   0.192   4.588   5.632  0.3445  0.2403  0.0030
11964SOL    HW137333   0.215   4.568   5.723 -0.9167 -1.5786  0.0003
11964SOL    HW237334   0.261   4.547   5.580  0.6461  0.5878  0.1314
11965SOL     OW37335   4.831   6.451   5.053 -0.4003  0.7957  0.0683
11965SOL    HW137336   4.884   6.452   5.133  0.3077  0.5109 -0.3871
11965SOL    HW237337   4.836   6.361   5.021 -1.3774  0.7079  0.1558
11966SOL     OW37338   2.937   7.097   0.408 -0.0627  0.0986  0.1573
11966SOL    HW137339   2.968   7.089   0.318  0.4477 -1.4105  0.4401
11966SOL    HW237340   2.996   7.042   0.459 -1.1248 -0.1150  1.2162
11967SOL     OW37341   4.944   6.644  11.851 -0.4126 -0.0993 -0.4285
11967SOL    HW137342   4.981   6.566  11.894 -2.3268 -0.7218  0.2304
11967SOL    HW237343   4.903   6.610  11.772  1.4709  0.7799 -1.8713
11968SOL     OW37344   4.264   6.717   0.860 -0.2558  0.0269 -0.7126
11968SOL    HW137345   4.237   6.662   0.787 -2.1534  0.7928 -0.6463
11968SOL    HW237346   4.192   6.779   0.872 -0.9856 -1.2414  2.9882
11969SOL     OW37347   1.625   4.306   6.602  0.5266  0.1194 -0.4200
11969SOL    HW137348   1.712   4.274   6.579 -0.2087 -0.6432 -2.3782
11969SOL    HW237349   1.566   4.258   6.545 -1.0019  2.2173 -0.7412
11970SOL     OW37350   5.506   3.356   3.850 -0.0366 -0.1923  0.2243
11970SOL    HW137351   5.491   3.395   3.936 -0.9202  1.6340 -0.7037
11970SOL    HW237352   5.465   3.269   3.855 -1.4279  0.4932  1.1704
11971SOL     OW37353   5.739   1.463   2.948 -0.1267  0.3197 -0.0030
11971SOL    HW137354   5.726   1.407   2.872 -2.5656  2.4800 -1.3616
11971SOL    HW237355   5.675   1.433   3.012 -0.2478  0.4622 -0.0560
11972SOL     OW37356   5.222   6.780   9.548 -0.0115 -0.3102  0.4905
11972SOL    HW137357   5.256   6.760   9.635 -0.2765  0.1556  0.6996
11972SOL    HW237358   5.132   6.748   9.549  0.0047 -0.3593  0.3685
11973SOL     OW37359   7.221   4.656   7.037  0.2453  0.5848 -0.0519
11973SOL    HW137360   7.252   4.590   7.098 -1.5323 -0.1512  0.1081
11973SOL    HW237361   7.219   4.612   6.952 -1.1089  0.3500  0.0845
11974SOL     OW37362   2.122   7.146   8.308  0.0411  0.2592  0.4730
11974SOL    HW137363   2.168   7.179   8.230  0.8985 -0.0565  0.8264
11974SOL    HW237364   2.034   7.183   8.302  0.0496  0.1211 -0.7257
11975SOL     OW37365   2.505   2.613   1.819  0.3298 -0.3295  0.1494
11975SOL    HW137366   2.449   2.556   1.873  1.0682 -1.7370 -0.5018
11975SOL    HW237367   2.489   2.583   1.730  1.1521  0.1168 -0.1538
11976SOL     OW37368   1.558   7.198   5.529  0.2280  0.3033  0.3194
11976SOL    HW137369   1.626   7.165   5.470 -1.4158 -0.7272 -1.0967
11976SOL    HW237370   1.532   7.121   5.580 -0.1259  0.5986  0.5875
11977SOL     OW37371   3.511   0.433   0.104  0.6808 -0.4129 -0.0588
11977SOL    HW137372   3.526   0.528   0.108 -0.0634 -0.3189  1.0365
11977SOL    HW237373   3.452   0.415   0.177  0.9693 -1.7637 -0.1304
11978SOL     OW37374   5.219   5.677   5.099 -0.1104  0.4119 -0.1192
11978SOL    HW137375   5.277   5.729   5.154  2.2565 -0.1832 -1.8814
11978SOL    HW237376   5.270   5.598   5.078 -1.8885 -0.5564 -1.0858
11979SOL     OW37377   3.514   3.126   0.991 -0.2450 -0.7118 -0.6214
11979SOL    HW137378   3.475   3.213   0.999  0.5936 -0.0283 -3.0310
11979SOL    HW237379   3.467   3.086   0.917  0.4842 -1.6543 -0.5857
11980SOL     OW37380   5.401   3.433   5.096  0.4040  0.0083 -0.1928
11980SOL    HW137381   5.365   3.417   5.009  0.0804  1.3258 -0.3249
11980SOL    HW237382   5.339   3.390   5.156 -0.7223  1.1410 -0.4939
11981SOL     OW37383   7.626   0.306   5.080  0.4088 -0.5830 -0.2069
11981SOL    HW137384   7.581   0.335   5.159 -0.4706 -0.8573 -0.5942
11981SOL    HW237385   7.688   0.376   5.061  1.3972 -0.9861  1.3122
11982SOL     OW37386   7.794   5.788  10.414  0.0175  0.9523  0.3343
11982SOL    HW137387   7.869   5.768  10.358 -0.0264  1.2889  0.1503
11982SOL    HW237388   7.721   5.800  10.353 -0.1848  0.6493  0.5109
11983SOL     OW37389   2.518   3.358  11.769  0.6313  0.0249 -0.2449
11983SOL    HW137390   2.494   3.403  11.850  0.1230 -1.8063  0.6886
11983SOL    HW237391   2.438   3.314  11.741  1.0724 -0.2196 -1.1659
11984SOL     OW37392   4.063   7.052   2.247 -0.2947 -0.2778 -0.2039
11984SOL    HW137393   4.005   7.128   2.249 -0.6406 -0.5524  1.3298
11984SOL    HW237394   4.104   7.050   2.334  1.7127 -0.3518 -1.0782
11985SOL     OW37395   4.902   4.868   1.771 -0.4701  0.2108  0.6591
11985SOL    HW137396   4.899   4.780   1.808 -0.5301 -0.6823 -1.3684
11985SOL    HW237397   4.816   4.905   1.790 -0.7071 -0.4395  0.8616
11986SOL     OW37398   7.951   3.855   2.404  0.3174  0.2052  0.1582
11986SOL    HW137399   7.891   3.803   2.351  0.9908 -0.8505  0.3888
11986SOL    HW237400   8.038   3.832   2.371  0.7902 -0.7709  1.9285
11987SOL     OW37401   3.582   6.271   3.213  0.1537 -0.0649  0.2887
11987SOL    HW137402   3.498   6.314   3.200  0.1143 -0.3576 -0.4360
11987SOL    HW237403   3.636   6.300   3.139 -0.2993 -2.3005 -0.9978
11988SOL     OW37404   4.159   1.962   3.736 -0.1291 -0.0024  0.6765
11988SOL    HW137405   4.104   1.920   3.670 -0.4461  1.8799 -0.3669
11988SOL    HW237406   4.100   1.981   3.809 -1.1907  2.5798 -0.6859
11989SOL     OW37407   5.899   2.368   1.656 -0.2484 -0.1558  1.0919
11989SOL    HW137408   5.887   2.290   1.602 -0.3310  0.6869 -0.1456
11989SOL    HW237409   5.985   2.357   1.696 -0.9914 -1.7227  2.4106
11990SOL     OW37410   3.850   2.891   5.979  0.5738 -0.2258 -0.4780
11990SOL    HW137411   3.937   2.924   6.003 -0.4568  2.1270  0.3100
11990SOL    HW237412   3.789   2.956   6.013 -1.4631 -1.1169 -2.1595
11991SOL     OW37413   5.981   7.030  12.465 -0.3993 -0.9099  0.3616
11991SOL    HW137414   5.894   7.042  12.426 -0.5183 -0.5366  0.7313
11991SOL    HW237415   6.014   7.119  12.476 -0.1813 -1.0302  0.6900
11992SOL     OW37416   1.396   7.916   8.911  0.4035  1.0976 -0.5095
11992SOL    HW137417   1.473   7.950   8.956  1.4256 -0.3929 -1.0692
11992SOL    HW237418   1.348   7.995   8.884  1.1677  2.0418  0.7540
11993SOL     OW37419   3.218   0.041  12.030  0.7092 -0.0760 -0.2275
11993SOL    HW137420   3.129   0.013  12.052  1.6577 -1.0668  2.9618
11993SOL    HW237421   3.248  -0.022  11.966 -0.3417 -0.7264 -0.1047
11994SOL     OW37422   5.518   4.990   4.943 -0.1653 -0.2883  0.3567
11994SOL    HW137423   5.457   5.042   4.890  0.4296  0.0367 -0.0320
11994SOL    HW237424   5.479   4.988   5.030 -0.3037  0.6487  0.3285
11995SOL     OW37425   5.441   6.210   2.365  0.2908 -0.1996 -0.2973
11995SOL    HW137426   5.368   6.257   2.324  0.1347 -0.0391  0.1585
11995SOL    HW237427   5.405   6.177   2.447  0.5249 -0.7509 -0.4154
11996SOL     OW37428   4.401   4.420   5.755 -0.0844 -0.2206  0.1395
11996SOL    HW137429   4.390   4.342   5.809 -0.1840 -2.2251 -2.6290
11996SOL    HW237430   4.339   4.483   5.793 -1.2914 -2.0455  1.3820
11997SOL     OW37431   5.772   7.155  11.946  0.0682  0.1990 -0.7218
11997SOL    HW137432   5.843   7.217  11.932 -0.1732  0.3304 -1.4105
11997SOL    HW237433   5.692   7.205  11.928 -0.1551 -0.1474 -0.7072
11998SOL     OW37434   4.178   0.379   2.089 -0.1697 -0.1237  0.3911
11998SOL    HW137435   4.262   0.415   2.115 -0.6311  2.4576 -1.3721
11998SOL    HW237436   4.187   0.285   2.104  2.5591  0.1992  1.3771
11999SOL     OW37437   2.929   6.146   2.446  0.1871 -0.2442 -0.4730
11999SOL    HW137438   2.887   6.225   2.480  0.3832  0.7392 -2.3568
11999SOL    HW237439   3.021   6.171   2.437  0.0297 -0.2012 -2.2955
12000SOL     OW37440   2.811   4.651   8.393 -0.2634 -0.1613 -0.3639
12000SOL    HW137441   2.864   4.690   8.323 -2.0054  0.4526 -1.3949
12000SOL    HW237442   2.836   4.558   8.393  0.2757 -0.0323 -1.3049
12001SOL     OW37443   5.229   4.343   4.105 -0.0532  0.0989 -0.3633
12001SOL    HW137444   5.207   4.250   4.100  2.7658 -0.6032 -1.8294
12001SOL    HW237445   5.149   4.388   4.078 -1.1495 -1.9179 -0.7323
12002SOL     OW37446   6.937   2.223   0.296  0.3034 -0.1338  0.2890
12002SOL    HW137447   7.029   2.231   0.268  0.2892 -0.4290  0.1552
12002SOL    HW237448   6.938   2.248   0.388  0.4879  0.0420  0.2430
12003SOL     OW37449   7.471   6.467   7.200  0.0506 -0.6865 -0.1309
12003SOL    HW137450   7.453   6.468   7.294 -1.4667 -0.6782 -0.3994
12003SOL    HW237451   7.566   6.481   7.194  0.2871 -1.3946  1.4096
12004SOL     OW37452   6.422   1.964   5.449  0.0561  0.0157 -0.5128
12004SOL    HW137453   6.493   1.982   5.510 -0.8637  0.4888  0.4572
12004SOL    HW237454   6.415   2.042   5.395 -0.2341  0.3096 -0.0658
12005SOL     OW37455   6.961   4.016   8.531  0.0105 -0.7176  0.4340
12005SOL    HW137456   6.977   4.001   8.438  1.5376 -0.7810  0.6666
12005SOL    HW237457   6.910   4.097   8.535 -1.8116 -1.7554 -0.5173
12006SOL     OW37458   4.215   0.462   9.407 -0.1437  0.1438 -0.5864
12006SOL    HW137459   4.162   0.389   9.374  2.4314 -1.8681 -0.5567
12006SOL    HW237460   4.245   0.507   9.329  1.4934 -1.3094 -0.8469
12007SOL     OW37461   1.918   4.884  11.160 -0.4445 -0.1202  0.1121
12007SOL    HW137462   1.926   4.792  11.187  1.8167  0.2150  0.8180
12007SOL    HW237463   1.894   4.930  11.241 -0.0639  0.1007  0.0977
12008SOL     OW37464   4.802   7.146   9.388 -0.1219 -0.8205 -0.5439
12008SOL    HW137465   4.774   7.234   9.363  1.2187 -0.3767 -0.5372
12008SOL    HW237466   4.802   7.147   9.483  1.7274 -0.1750 -0.5035
12009SOL     OW37467   0.856   2.328  11.998  0.1094 -0.3094 -0.4900
12009SOL    HW137468   0.913   2.388  12.045 -0.4956 -0.7350  0.8256
12009SOL    HW237469   0.853   2.249  12.053 -1.1093 -0.5882 -0.9312
12010SOL     OW37470   5.759   3.698   8.856  0.1055 -0.1941 -0.1760
12010SOL    HW137471   5.850   3.701   8.827  1.0685  0.1309  2.5481
12010SOL    HW237472   5.719   3.628   8.805  1.7108  0.0100 -1.8051
12011SOL     OW37473   0.667   1.145   2.897  0.2921  0.2386  0.1359
12011SOL    HW137474   0.649   1.071   2.838  0.8611  0.3598 -0.1985
12011SOL    HW237475   0.762   1.155   2.894  0.1319  1.7825 -0.8108
12012SOL     OW37476   6.989   4.673   7.204  0.7812 -0.1245 -0.3571
12012SOL    HW137477   7.068   4.694   7.154  1.6623 -0.9811  0.5938
12012SOL    HW237478   6.928   4.636   7.140  0.4560  2.1398 -1.4315
12013SOL     OW37479   6.805   3.299   9.790 -0.2727  0.2645 -0.0485
12013SOL    HW137480   6.873   3.364   9.774 -0.1624  0.1539 -0.0267
12013SOL    HW237481   6.851   3.224   9.827 -0.5742  0.6657  1.1843
12014SOL     OW37482   2.171   5.453  10.815  0.1594  0.5237  0.2462
12014SOL    HW137483   2.246   5.446  10.756  0.0792 -0.8671  0.2550
12014SOL    HW237484   2.095   5.444  10.758  0.0891 -1.9343  0.5845
12015SOL     OW37485   3.721   4.500   4.166 -0.2619  0.6326  0.0771
12015SOL    HW137486   3.797   4.553   4.190 -0.8381  2.2656 -1.4413
12015SOL    HW237487   3.744   4.461   4.082 -0.7871  0.5314 -0.0284
12016SOL     OW37488   3.864   5.587   7.494 -0.7806 -0.0301 -0.3069
12016SOL    HW137489   3.849   5.640   7.572  1.9539  1.4507 -0.6687
12016SOL    HW237490   3.921   5.516   7.524  1.2684  1.2006 -1.0593
12017SOL     OW37491   3.837   2.209   3.060 -0.0228  0.0056 -0.2270
12017SOL    HW137492   3.853   2.120   3.092  1.1795  0.8604  1.6992
12017SOL    HW237493   3.762   2.239   3.110  1.2029  0.9749  1.0946
12018SOL     OW37494   5.647   1.528   2.077  0.4238 -0.9515 -0.3578
12018SOL    HW137495   5.689   1.454   2.032  1.3416 -0.5607 -0.1699
12018SOL    HW237496   5.592   1.568   2.010 -0.8369 -2.3536 -0.2078
12019SOL     OW37497   5.344   6.834   3.222 -0.1174 -0.2543  0.2729
12019SOL    HW137498   5.349   6.765   3.288 -0.7931 -1.0826 -0.5218
12019SOL    HW237499   5.417   6.815   3.162  1.1130  1.0687  1.2810
12020SOL     OW37500   7.155   0.736   3.596  0.0955  0.2243  0.1191
12020SOL    HW137501   7.065   0.712   3.617  0.4522 -1.7841 -0.4395
12020SOL    HW237502   7.186   0.784   3.673 -1.3671  0.7373  0.4097
12021SOL     OW37503   5.080   0.254   3.267 -0.2825  0.0451  0.2260
12021SOL    HW137504   5.118   0.293   3.189  0.4918  0.5676  0.8503
12021SOL    HW237505   4.986   0.271   3.260 -0.5712 -1.9584 -1.7323
12022SOL     OW37506   7.745   7.023   3.401 -0.1701 -0.4656 -0.1204
12022SOL    HW137507   7.796   7.006   3.480  1.3888 -0.5710 -1.1151
12022SOL    HW237508   7.742   7.119   3.395 -1.4543 -0.4212  0.7573
12023SOL     OW37509   6.161   0.261  11.715 -0.2477  0.3590 -0.0056
12023SOL    HW137510   6.251   0.240  11.741  0.3093  0.9810 -1.3179
12023SOL    HW237511   6.165   0.353  11.688 -1.1927  0.2781 -0.4367
12024SOL     OW37512   7.812   4.923   6.449  0.1241  0.2068 -0.2933
12024SOL    HW137513   7.899   4.887   6.465  0.2255  0.3196 -0.5896
12024SOL    HW237514   7.773   4.930   6.537  0.5815  0.5744 -0.1136
12025SOL     OW37515   2.268   5.633   8.430 -0.4958 -0.3488  0.2605
12025SOL    HW137516   2.273   5.570   8.358  1.1845  0.5874 -0.5270
12025SOL    HW237517   2.300   5.715   8.392 -0.2583  0.3591  1.8829
12026SOL     OW37518   6.821   4.250   1.765  0.0058  0.7263 -0.1868
12026SOL    HW137519   6.881   4.321   1.788  1.4840 -0.6686  0.5118
12026SOL    HW237520   6.795   4.212   1.849 -0.2436  0.0363 -0.5672
12027SOL     OW37521   2.940   4.670  11.742  0.0007 -0.0436  0.1810
12027SOL    HW137522   2.909   4.638  11.827 -2.9527  0.8316 -0.4506
12027SOL    HW237523   2.955   4.764  11.756  0.1384 -0.0195 -0.1278
12028SOL     OW37524   2.877   5.690   0.733  0.0494  0.3264  0.0695
12028SOL    HW137525   2.916   5.766   0.689 -0.8475 -0.4723 -2.2475
12028SOL    HW237526   2.949   5.627   0.740  0.6894  1.1652  1.6150
12029SOL     OW37527   7.169   5.924   7.100 -0.4467  0.1923 -0.2888
12029SOL    HW137528   7.104   5.909   7.169 -2.0539  1.1416 -1.5377
12029SOL    HW237529   7.235   5.978   7.142 -2.1677  2.0661  0.1722
12030SOL     OW37530   2.690   2.041  11.785 -0.5474  0.4634  0.3009
12030SOL    HW137531   2.680   1.946  11.782 -0.2845  0.4533 -1.0884
12030SOL    HW237532   2.605   2.075  11.756  0.4250  0.5448 -2.7305
12031SOL     OW37533   5.078   2.995   9.336  0.4231 -0.2822 -0.5689
12031SOL    HW137534   5.103   3.014   9.427  0.2986  2.4692 -1.0213
12031SOL    HW237535   5.136   2.924   9.309  0.7972 -0.8301  1.4936
12032SOL     OW37536   4.566   1.745   4.381 -0.8247 -0.6363  0.1273
12032SOL    HW137537   4.653   1.708   4.398 -0.8089 -0.7687 -0.2350
12032SOL    HW237538   4.571   1.778   4.292 -0.1937  2.0858  1.0667
12033SOL     OW37539   5.832   5.977   0.196 -0.1392  0.0249 -0.1927
12033SOL    HW137540   5.833   6.030   0.116  0.7240  0.3376  0.0090
12033SOL    HW237541   5.764   6.015   0.250 -0.5962 -0.0669 -0.6982
12034SOL     OW37542   2.336   1.728  12.080 -0.1048  0.0064 -0.0402
12034SOL    HW137543   2.396   1.662  12.047  0.1617  0.3296 -0.2134
12034SOL    HW237544   2.301   1.770  12.001 -0.6999 -0.3004  0.0548
12035SOL     OW37545   5.934   2.631  11.738  0.0996  0.2424 -0.2439
12035SOL    HW137546   5.944   2.683  11.818  0.4301  1.2367 -0.9159
12035SOL    HW237547   5.980   2.549  11.757  0.4414  0.5887  0.4754
12036SOL     OW37548   5.741   6.580   7.061  0.0001  0.2893  0.1063
12036SOL    HW137549   5.691   6.505   7.028  0.8838 -0.6946  0.9314
12036SOL    HW237550   5.689   6.656   7.037 -0.7712 -0.5667 -1.0329
12037SOL     OW37551   4.726   6.303   0.003 -0.3045 -0.0395  0.1263
12037SOL    HW137552   4.735   6.398   0.011 -2.0662  0.3098 -1.6051
12037SOL    HW237553   4.642   6.283   0.044 -0.4150 -0.7085 -0.4093
12038SOL     OW37554   0.616   1.842  11.841  0.1850  0.0912 -0.0139
12038SOL    HW137555   0.700   1.881  11.866  0.4064 -0.2025 -0.2911
12038SOL    HW237556   0.640   1.767  11.786 -0.1314 -1.7446  2.1920
12039SOL     OW37557   3.929   2.640   2.990  0.7219  0.1404  0.3573
12039SOL    HW137558   3.908   2.685   2.908  1.5836  2.4272  1.3009
12039SOL    HW237559   4.014   2.598   2.973 -0.6920 -2.3844 -0.9485
12040SOL     OW37560   7.659   7.204   7.032 -0.4851  0.3025 -0.7377
12040SOL    HW137561   7.689   7.150   6.959  1.2040 -0.3582  0.3969
12040SOL    HW237562   7.697   7.290   7.015  0.6084 -0.0700 -0.2208
12041SOL     OW37563   6.237   2.055   4.553  0.7133  0.3275 -0.0775
12041SOL    HW137564   6.181   2.010   4.616  1.3439  2.2039  1.9741
12041SOL    HW237565   6.214   2.017   4.468 -3.0888  0.4431  0.7276
12042SOL     OW37566   5.967   1.967  11.631 -0.4171 -0.2283  0.3824
12042SOL    HW137567   5.919   2.049  11.620  0.5877  0.7393  2.4530
12042SOL    HW237568   6.059   1.994  11.636  0.1537 -1.7595 -1.0829
12043SOL     OW37569   4.176   5.819  10.780  0.1748 -0.4184 -0.0368
12043SOL    HW137570   4.206   5.907  10.761 -0.6926 -0.1132 -0.0412
12043SOL    HW237571   4.226   5.763  10.722 -0.6491  0.2583 -1.4471
12044SOL     OW37572   5.740   3.464   7.880  0.6062 -0.0224  0.2806
12044SOL    HW137573   5.744   3.551   7.920 -0.6229  0.3965 -0.4475
12044SOL    HW237574   5.748   3.404   7.954 -1.2704  0.7345  1.1675
12045SOL     OW37575   3.440   2.390   8.526  0.1668 -0.0457 -0.6304
12045SOL    HW137576   3.424   2.367   8.435 -0.3555 -0.3799 -0.4661
12045SOL    HW237577   3.387   2.326   8.575  0.1045  0.4033 -0.1102
12046SOL     OW37578   2.895   7.292  10.063 -0.3871 -0.0430  0.0123
12046SOL    HW137579   2.853   7.347  10.129 -0.4032  0.4750 -0.4197
12046SOL    HW237580   2.954   7.352  10.017  0.3378 -0.6199  0.1860
12047SOL     OW37581   4.630   6.325   8.287  0.8117 -0.2752  0.4066
12047SOL    HW137582   4.711   6.290   8.324  0.4118 -0.0397  1.5463
12047SOL    HW237583   4.660   6.394   8.228  1.4234  1.2864  2.4043
12048SOL     OW37584   6.509   3.160   5.376  0.5014  0.5256 -0.0553
12048SOL    HW137585   6.499   3.122   5.289 -0.0594 -0.2082  0.3155
12048SOL    HW237586   6.422   3.193   5.398  1.0840  2.5566 -0.5814
12049SOL     OW37587   7.332   3.066   2.533  0.1746 -0.1778 -0.3087
12049SOL    HW137588   7.359   3.065   2.625 -1.0908  0.9454  0.1049
12049SOL    HW237589   7.368   3.148   2.499  0.4418 -0.4808 -0.7584
12050SOL     OW37590   0.980   1.211   1.629  0.0933 -0.2408  0.7206
12050SOL    HW137591   0.893   1.207   1.667 -0.9372 -0.0910 -1.4885
12050SOL    HW237592   0.999   1.122   1.601  0.6755 -0.2766  1.1944
12051SOL     OW37593   3.946   4.720   9.373  0.0671 -0.7244  0.7305
12051SOL    HW137594   3.891   4.797   9.386 -2.6238 -2.4915  0.6804
12051SOL    HW237595   3.927   4.664   9.448 -1.2901 -3.0475 -1.1849
12052SOL     OW37596   6.991   7.748   2.124  0.5952  0.3138 -0.0905
12052SOL    HW137597   6.921   7.709   2.176  0.0665 -0.3515 -1.2728
12052SOL    HW237598   6.979   7.843   2.134 -0.2529  0.2004 -0.0044
12053SOL     OW37599   1.934   4.674   9.701 -0.3004 -0.5683 -0.2141
12053SOL    HW137600   1.892   4.701   9.619  0.0211  0.7152  0.0268
12053SOL    HW237601   1.924   4.749   9.759 -0.8198 -1.5971  1.0547
12054SOL     OW37602   6.210   1.966   0.605 -0.2628 -0.4527 -0.2277
12054SOL    HW137603   6.198   2.036   0.670  0.2184 -0.2022 -0.4014
12054SOL    HW237604   6.125   1.924   0.599 -0.0741 -1.1119  1.2941
12055SOL     OW37605   5.613   2.919  10.540  0.9993 -0.1693 -0.0422
12055SOL    HW137606   5.668   2.851  10.579 -2.5286 -2.9172  0.6669
12055SOL    HW237607   5.625   2.995  10.597  2.9625 -1.1017  0.8725
12056SOL     OW37608   3.556   6.279   0.431  0.6345  0.1646 -0.3873
12056SOL    HW137609   3.512   6.359   0.402  2.0413  0.9224 -0.5150
12056SOL    HW237610   3.534   6.214   0.364 -0.5123  0.4207 -0.2876
12057SOL     OW37611   4.486   3.131   0.372  0.0464 -0.1785 -0.0461
12057SOL    HW137612   4.467   3.200   0.308 -0.3214 -0.0001  0.2501
12057SOL    HW237613   4.518   3.058   0.320 -1.1424 -0.3707 -0.5310
12058SOL     OW37614   0.806   4.250   2.705  0.3188  0.1606 -0.4953
12058SOL    HW137615   0.803   4.186   2.634 -0.8399 -0.1398 -0.1843
12058SOL    HW237616   0.752   4.323   2.674  1.3650  0.8804 -0.7119
12059SOL     OW37617   5.709   0.234   1.473 -0.1303 -0.2666 -0.5897
12059SOL    HW137618   5.794   0.258   1.435 -0.3220  0.1647 -0.7507
12059SOL    HW237619   5.731   0.203   1.561  0.2711 -0.8670 -0.8916
12060SOL     OW37620   5.486   5.184   9.080 -0.1140  1.0858  0.1286
12060SOL    HW137621   5.447   5.203   8.994 -1.6468 -0.7475  0.3375
12060SOL    HW237622   5.551   5.252   9.092 -0.6806  2.1037 -1.9669
12061SOL     OW37623   3.707   4.424   6.221 -0.3415 -0.3435 -0.3891
12061SOL    HW137624   3.694   4.423   6.127  0.0513  1.2854 -0.4966
12061SOL    HW237625   3.639   4.366   6.256 -2.1767  1.0136 -1.5039
12062SOL     OW37626   1.340   4.297  10.245  0.0347  0.4034 -0.1641
12062SOL    HW137627   1.358   4.390  10.240 -0.8463  0.5001 -2.7992
12062SOL    HW237628   1.250   4.291  10.277 -0.0027  0.4626 -0.2602
12063SOL     OW37629   4.581   7.227   3.216 -0.3668  0.5953  0.2700
12063SOL    HW137630   4.517   7.298   3.221 -0.4781  0.5863 -0.8410
12063SOL    HW237631   4.548   7.169   3.147  1.1285  0.8893 -0.7410
12064SOL     OW37632   1.325   1.840   6.167 -0.0100  0.3914 -0.0477
12064SOL    HW137633   1.278   1.905   6.219 -0.4664  0.4236 -0.4929
12064SOL    HW237634   1.369   1.890   6.099 -1.4698  0.1376 -1.2330
12065SOL     OW37635   4.967   6.290   1.346  0.1462 -0.3623 -0.1162
12065SOL    HW137636   4.927   6.220   1.293 -0.7841 -0.2322  0.3867
12065SOL    HW237637   5.030   6.245   1.402  0.2151 -0.6764 -0.4424
12066SOL     OW37638   4.631   4.845   1.409 -0.5005  0.2768 -0.0568
12066SOL    HW137639   4.610   4.757   1.440  0.1840  0.1960  0.1861
12066SOL    HW237640   4.696   4.831   1.340 -0.6395  0.5688 -0.2474
12067SOL     OW37641   4.330   5.190   0.487 -0.9472  0.6663 -0.4220
12067SOL    HW137642   4.292   5.179   0.399  0.8972  1.2695 -1.3325
12067SOL    HW237643   4.261   5.234   0.537 -1.4819  1.7593 -2.0243
12068SOL     OW37644   2.504   0.656  10.887 -0.3398  0.3761  0.2634
12068SOL    HW137645   2.598   0.665  10.873 -0.7187  2.2276 -1.6722
12068SOL    HW237646   2.472   0.612  10.808 -1.0962 -0.3830  0.9742
12069SOL     OW37647   7.499   0.884   5.628 -0.2477  0.2971  0.0171
12069SOL    HW137648   7.523   0.947   5.561  1.0903 -0.3095 -0.0941
12069SOL    HW237649   7.562   0.813   5.619 -1.0632 -0.5662  0.8388
12070SOL     OW37650   6.950   0.493  10.670 -0.2505 -0.3109 -0.5679
12070SOL    HW137651   7.030   0.444  10.685 -0.4532 -0.5436 -0.2255
12070SOL    HW237652   6.979   0.582  10.652  0.0142  0.1507  1.8234
12071SOL     OW37653   4.998   4.540   8.705 -0.0958  0.0171 -0.3079
12071SOL    HW137654   4.933   4.517   8.771  0.5093 -1.7234 -0.2668
12071SOL    HW237655   5.067   4.474   8.715  0.7833  0.6846 -1.6070
12072SOL     OW37656   4.310   4.829   5.763 -0.1255  0.1049  0.4378
12072SOL    HW137657   4.223   4.868   5.768  0.7805  2.2237  0.8788
12072SOL    HW237658   4.339   4.825   5.855  0.8133  0.9026  0.1984
12073SOL     OW37659   2.662   5.200   5.830 -0.2662 -0.3085 -0.3515
12073SOL    HW137660   2.604   5.253   5.886  0.6376 -0.2369  0.5614
12073SOL    HW237661   2.614   5.118   5.816 -0.1103 -0.7421  1.4055
12074SOL     OW37662   1.632   0.077   4.595  0.6946  0.2953 -0.5399
12074SOL    HW137663   1.660   0.023   4.522  0.9265  0.0414 -0.2638
12074SOL    HW237664   1.663   0.165   4.573 -0.6949  0.5699 -1.5488
12075SOL     OW37665   5.800   4.593   2.701  0.6070 -0.2185  0.1524
12075SOL    HW137666   5.737   4.554   2.639  2.2719 -2.5794 -0.1966
12075SOL    HW237667   5.774   4.558   2.786  1.8943 -1.9740 -0.1147
12076SOL     OW37668   7.786   6.348   0.666 -0.0642 -0.5781  0.0772
12076SOL    HW137669   7.747   6.396   0.592 -0.4698  0.5277  0.9794
12076SOL    HW237670   7.874   6.327   0.637 -0.0375  0.3033 -0.5389
12077SOL     OW37671   3.102   6.945   8.562  0.5643  0.1310 -0.3380
12077SOL    HW137672   3.190   6.909   8.574  0.2905 -0.3610  0.1943
12077SOL    HW237673   3.117   7.035   8.531  1.2631  0.2764  0.3835
12078SOL     OW37674   3.275   5.580   8.301  0.1632  0.6060 -0.2332
12078SOL    HW137675   3.248   5.620   8.218  1.4014 -0.2530 -1.0969
12078SOL    HW237676   3.284   5.487   8.281  0.2307  0.3435  0.9459
12079SOL     OW37677   4.653   7.383   6.065  0.2220 -0.0743  0.4996
12079SOL    HW137678   4.735   7.406   6.022  1.0057 -1.0873  1.4000
12079SOL    HW237679   4.679   7.332   6.142 -1.1836  0.5922  1.4816
12080SOL     OW37680   0.963   3.956   3.753 -0.0234 -0.2641 -0.6718
12080SOL    HW137681   0.897   3.993   3.695 -0.0748 -1.5139 -1.4558
12080SOL    HW237682   1.045   3.997   3.726 -0.3457  0.7045 -0.2197
12081SOL     OW37683   6.165   6.372   0.779  0.2097  0.2316 -0.5061
12081SOL    HW137684   6.169   6.277   0.773 -0.0399  0.1337  0.6763
12081SOL    HW237685   6.181   6.391   0.872  0.0658  1.3310 -0.6928
12082SOL     OW37686   6.765   5.123   0.365  0.1798 -0.2232 -0.4385
12082SOL    HW137687   6.769   5.208   0.322  0.4487 -0.6401 -1.2582
12082SOL    HW237688   6.679   5.088   0.342  0.4140 -0.5458 -0.8295
12083SOL     OW37689   5.912   5.691   4.790  0.0227  0.2794  0.4605
12083SOL    HW137690   5.850   5.724   4.726 -1.0852 -1.8492  0.3546
12083SOL    HW237691   5.998   5.707   4.751 -0.6115 -0.8754 -1.5639
12084SOL     OW37692   5.689   5.760   1.051 -0.0599 -0.7057 -0.2385
12084SOL    HW137693   5.620   5.827   1.050 -0.4543 -1.0927  0.2728
12084SOL    HW237694   5.761   5.800   1.098  0.9654  0.5458 -2.7127
12085SOL     OW37695   4.305   2.877   4.084 -0.1420  0.4211  0.4948
12085SOL    HW137696   4.257   2.925   4.151 -0.8719  0.6894 -0.2079
12085SOL    HW237697   4.260   2.793   4.077  0.7173 -0.1233  1.2355
12086SOL     OW37698   7.771   3.561   8.936 -0.2583  0.4528 -0.3724
12086SOL    HW137699   7.819   3.641   8.954  0.1397 -0.1804  1.5869
12086SOL    HW237700   7.826   3.513   8.875  0.0849  1.1210 -0.5953
12087SOL     OW37701   0.786   6.577   1.715  0.3375  0.6094  0.8898
12087SOL    HW137702   0.725   6.651   1.721  0.1812  0.7512 -1.4437
12087SOL    HW237703   0.750   6.512   1.776 -2.7404  0.3478 -0.9623
12088SOL     OW37704   5.496   6.099   3.062  0.5668 -0.3749  0.7168
12088SOL    HW137705   5.425   6.163   3.069 -0.1034 -0.8011 -1.3246
12088SOL    HW237706   5.575   6.151   3.053  0.0201  0.2352 -0.9901
12089SOL     OW37707   6.826   2.056   0.117  0.1731  0.4935 -0.0467
12089SOL    HW137708   6.765   2.112   0.069  0.3247  0.6032 -0.1114
12089SOL    HW237709   6.860   2.111   0.187  0.1112  0.3967  0.0607
12090SOL     OW37710   5.898   3.868   9.752  0.0074 -0.1004  0.3642
12090SOL    HW137711   5.978   3.880   9.803  0.3021  0.3059 -0.1827
12090SOL    HW237712   5.871   3.778   9.770 -0.4529  0.3425  2.0245
12091SOL     OW37713   4.824   3.776   8.389 -0.1041 -0.1338 -0.4791
12091SOL    HW137714   4.846   3.761   8.297  2.7057  0.5828 -0.0185
12091SOL    HW237715   4.798   3.868   8.393  2.0555  0.5180 -0.2662
12092SOL     OW37716   2.506   3.741   8.704  0.2269 -0.0538 -0.2654
12092SOL    HW137717   2.491   3.726   8.798 -0.3945  0.4711 -0.2812
12092SOL    HW237718   2.553   3.824   8.701 -0.0313  0.0851 -0.4403
12093SOL     OW37719   4.527   0.451   2.983  0.1547 -0.1854 -1.0779
12093SOL    HW137720   4.558   0.507   3.053 -0.2076 -0.0589 -1.0158
12093SOL    HW237721   4.435   0.476   2.971  0.0186 -0.6954 -1.1173
12094SOL     OW37722   6.905   7.798   0.860 -0.3878  0.3011 -0.2302
12094SOL    HW137723   6.889   7.743   0.937 -0.6870  0.9226  0.1682
12094SOL    HW237724   6.916   7.736   0.788  0.1350 -0.3011  0.3521
12095SOL     OW37725   4.326   0.277   4.794 -0.2929 -0.2074  0.1780
12095SOL    HW137726   4.392   0.326   4.746 -0.9361  1.9889  1.4201
12095SOL    HW237727   4.353   0.282   4.885 -2.0849  0.7319  0.7174
12096SOL     OW37728   3.771   1.352   8.061  0.2534  0.1902  0.3490
12096SOL    HW137729   3.821   1.406   7.999  0.5203 -0.8475 -0.3796
12096SOL    HW237730   3.762   1.407   8.139  0.7555  1.1689 -0.2536
12097SOL     OW37731   2.118   0.958   4.727 -0.3532 -0.5594 -0.0205
12097SOL    HW137732   2.109   0.864   4.713  1.3370 -1.2835  2.9287
12097SOL    HW237733   2.030   0.987   4.750 -0.5217 -1.9097  1.1958
12098SOL     OW37734   2.567   2.861   1.168 -0.6285 -0.4575  0.1334
12098SOL    HW137735   2.658   2.832   1.165 -0.4484  0.0725  0.4329
12098SOL    HW237736   2.552   2.903   1.083 -0.2029  0.6049  0.5707
12099SOL     OW37737   2.914   2.205  11.278 -0.3958 -0.0810 -0.9078
12099SOL    HW137738   2.871   2.218  11.362  1.1419  0.0126 -0.1088
12099SOL    HW237739   2.910   2.290  11.235  0.9249  0.5135  0.1060
12100SOL     OW37740   1.623   4.038  10.179  0.2845  0.5024  0.2411
12100SOL    HW137741   1.662   4.100  10.117  0.5255 -1.2403 -1.4509
12100SOL    HW237742   1.664   3.954  10.157 -1.1689 -0.5539  1.3992
12101SOL     OW37743   2.672   2.126   4.783  0.0561  0.1849  0.2336
12101SOL    HW137744   2.749   2.153   4.833 -0.0107  0.7669  0.0301
12101SOL    HW237745   2.699   2.133   4.691 -0.0865 -0.0750  0.1694
12102SOL     OW37746   7.931   1.278   0.986 -0.3336 -0.2240 -0.0491
12102SOL    HW137747   7.965   1.360   1.020 -3.3161  1.7480 -1.3665
12102SOL    HW237748   7.987   1.257   0.911 -1.0546  2.1417 -1.3385
12103SOL     OW37749   4.788   4.032   8.046 -0.4327  0.8261 -0.2172
12103SOL    HW137750   4.702   3.993   8.062  0.3323 -0.0987  1.9668
12103SOL    HW237751   4.832   3.970   7.988 -1.2891  1.4556 -1.6070
12104SOL     OW37752   6.307   7.269   8.157 -0.6015  0.1062 -0.1374
12104SOL    HW137753   6.380   7.281   8.219  1.9811  0.0202 -2.9547
12104SOL    HW237754   6.296   7.355   8.117 -1.1015 -0.2311 -0.7286
12105SOL     OW37755   1.142   1.403   4.062 -0.7873  0.4942  0.0301
12105SOL    HW137756   1.205   1.464   4.023 -0.2528  0.5918  1.0053
12105SOL    HW237757   1.075   1.391   3.995  0.1689  0.5391 -0.9732
12106SOL     OW37758   1.116   3.855   8.345  0.3028 -0.6894 -0.1046
12106SOL    HW137759   1.137   3.765   8.323 -1.1246 -0.8513 -0.9569
12106SOL    HW237760   1.121   3.902   8.261 -1.4816 -0.5232 -0.1620
12107SOL     OW37761   1.858   1.028   4.730 -0.3482  0.0513 -0.2249
12107SOL    HW137762   1.798   0.956   4.711  0.3981 -0.4760 -0.6271
12107SOL    HW237763   1.818   1.074   4.804 -0.2726 -1.4467  0.7760
12108SOL     OW37764   1.272   1.340  10.466  0.1195  0.0230 -0.2322
12108SOL    HW137765   1.265   1.405  10.396 -1.8960  0.9879  0.7798
12108SOL    HW237766   1.258   1.390  10.546 -1.8300 -1.6810  0.5618
12109SOL     OW37767   6.152   4.758   8.970  0.3352  0.2174 -0.0207
12109SOL    HW137768   6.073   4.743   9.023 -0.2142 -1.3199 -1.1974
12109SOL    HW237769   6.224   4.756   9.033 -0.5472  2.1180  1.1510
12110SOL     OW37770   0.728   6.081  11.706 -0.1012 -0.0684  0.2310
12110SOL    HW137771   0.686   5.996  11.715 -0.1312  0.0745  1.6514
12110SOL    HW237772   0.704   6.110  11.617  0.8340 -2.0004 -0.7139
12111SOL     OW37773   0.792   0.995  10.833  0.4483 -0.6744  0.4477
12111SOL    HW137774   0.815   0.971  10.922  2.0352  0.0474  0.2657
12111SOL    HW237775   0.818   1.087  10.825 -1.0039 -0.2926 -0.3326
12112SOL     OW37776   7.855   7.618   5.709 -0.5887 -0.3030  0.1546
12112SOL    HW137777   7.782   7.637   5.768 -1.1238 -2.3316  0.1990
12112SOL    HW237778   7.900   7.544   5.750  1.0110  0.3613 -0.3201
12113SOL     OW37779   0.450   6.227   9.285 -0.7039  0.4279  0.6618
12113SOL    HW137780   0.462   6.237   9.380 -2.4086  1.1880  0.8340
12113SOL    HW237781   0.478   6.311   9.248 -0.5179  0.3133  0.5427
12114SOL     OW37782   6.862   2.899  11.915  0.3248 -0.3998 -0.2210
12114SOL    HW137783   6.892   2.890  12.005 -1.7570  2.3370  0.8751
12114SOL    HW237784   6.901   2.981  11.885 -1.6595  0.4551 -0.5893
12115SOL     OW37785   7.850   6.093   6.588  0.5717 -0.0792 -0.1764
12115SOL    HW137786   7.887   6.138   6.664 -2.0009  1.1268  0.4585
12115SOL    HW237787   7.820   6.009   6.622  0.8785 -0.2238 -0.2541
12116SOL     OW37788   5.414   3.489  11.799 -0.2769  0.2652 -0.1801
12116SOL    HW137789   5.443   3.425  11.864 -1.3357 -0.7469 -0.6733
12116SOL    HW237790   5.320   3.499  11.816 -0.2203  1.3328 -0.4284
12117SOL     OW37791   4.750   5.107   0.283 -0.2022  0.7534 -0.3113
12117SOL    HW137792   4.659   5.109   0.254  0.3327  0.4409 -2.1829
12117SOL    HW237793   4.770   5.197   0.308 -1.2435  0.6622  0.8975
12118SOL     OW37794   7.823   2.997   9.885 -0.5585 -0.4651 -0.1160
12118SOL    HW137795   7.743   2.959   9.847 -1.4520  0.1348  1.0956
12118SOL    HW237796   7.869   3.036   9.810 -1.0000 -1.4966 -0.9543
12119SOL     OW37797   4.932   6.809   5.472  0.4499 -0.3246 -0.0644
12119SOL    HW137798   4.905   6.834   5.384  0.2023  2.4612  0.6998
12119SOL    HW237799   4.952   6.892   5.515  0.6773 -1.6032  2.4893
12120SOL     OW37800   5.017   0.595   7.608 -0.0900  0.7989 -0.1613
12120SOL    HW137801   4.941   0.651   7.625  0.4554  1.4455  0.2139
12120SOL    HW237802   5.089   0.640   7.652 -0.0038 -1.2626  1.9564
12121SOL     OW37803   3.578   0.851   5.038  0.2664 -0.1098 -0.0829
12121SOL    HW137804   3.511   0.918   5.027 -0.4185 -0.8773 -0.6663
12121SOL    HW237805   3.608   0.863   5.128 -0.9591 -0.0175  0.3400
12122SOL     OW37806   2.662   0.771   0.744  0.9705 -0.2974  0.0641
12122SOL    HW137807   2.627   0.682   0.734 -0.8969  0.3905  0.1086
12122SOL    HW237808   2.620   0.804   0.823 -0.3875  1.4992 -1.3283
12123SOL     OW37809   5.089   7.023   5.902 -0.3651  0.1045  0.1264
12123SOL    HW137810   5.021   6.961   5.876 -1.1534  0.9646  0.0907
12123SOL    HW237811   5.122   6.988   5.985 -0.7658 -0.3967  0.0804
12124SOL     OW37812   5.668   2.388   5.921  0.0748  0.0072 -0.4615
12124SOL    HW137813   5.653   2.382   6.015 -1.2331 -1.1998 -0.7225
12124SOL    HW237814   5.581   2.391   5.882  0.5974  1.0536 -1.6247
12125SOL     OW37815   2.131   2.863   4.302  0.5558 -0.0108  0.1037
12125SOL    HW137816   2.057   2.807   4.327  1.0830 -0.4287  0.7274
12125SOL    HW237817   2.119   2.877   4.208  1.4111 -2.6683 -0.4665
12126SOL     OW37818   2.696   4.899  10.863 -0.2219 -0.1113 -0.0821
12126SOL    HW137819   2.760   4.886  10.933  0.8911 -0.4044 -1.1229
12126SOL    HW237820   2.647   4.817  10.860 -1.3697  0.4675  1.3792
12127SOL     OW37821   5.602   6.035   0.521 -0.2722 -0.7309  0.2523
12127SOL    HW137822   5.535   6.019   0.454 -0.3763 -0.5403  0.3095
12127SOL    HW237823   5.621   5.948   0.557  2.9513 -1.5903 -2.9691
12128SOL     OW37824   2.778   2.702   3.828  0.6222  0.0216  0.4209
12128SOL    HW137825   2.826   2.713   3.746 -0.1042 -2.0546 -0.3434
12128SOL    HW237826   2.788   2.786   3.873 -0.6898  2.0117 -2.6904
12129SOL     OW37827   2.679   0.613   3.417  0.4885 -0.2052  1.4419
12129SOL    HW137828   2.722   0.545   3.364 -1.3323 -0.7272  0.5524
12129SOL    HW237829   2.663   0.571   3.502  1.5446 -0.0550  1.7296
12130SOL     OW37830   0.846   5.271   8.735 -0.3230  0.3780  0.0429
12130SOL    HW137831   0.904   5.319   8.675  0.0457 -0.1924 -0.0668
12130SOL    HW237832   0.873   5.180   8.726 -1.3859  0.0761 -0.1666
12131SOL     OW37833   3.951   2.917  10.342  0.0298 -0.3025 -0.2035
12131SOL    HW137834   3.867   2.877  10.319 -0.0131 -1.5211  1.7553
12131SOL    HW237835   4.017   2.856  10.309 -0.0142 -1.5481  1.7976
12132SOL     OW37836   3.241   1.528  11.374 -0.0743  0.1526  0.5552
12132SOL    HW137837   3.232   1.600  11.436  0.1505 -1.2016  2.2584
12132SOL    HW237838   3.152   1.512  11.342 -0.2484  0.6973  0.7629
12133SOL     OW37839   7.129   4.339   9.483  0.3625  0.6944 -0.2359
12133SOL    HW137840   7.182   4.278   9.432 -0.6822  1.2017 -2.0179
12133SOL    HW237841   7.181   4.420   9.484  1.3343  0.0909  1.3523
12134SOL     OW37842   5.270   6.438   0.957 -0.0217 -0.3317  0.3733
12134SOL    HW137843   5.281   6.505   1.025 -0.0490  0.0797 -0.0210
12134SOL    HW237844   5.178   6.412   0.964  0.4316 -1.6484  1.7256
12135SOL     OW37845   0.464   4.337   9.000  0.4956 -0.2731 -0.0532
12135SOL    HW137846   0.438   4.256   9.046 -1.0522  0.2719  0.1077
12135SOL    HW237847   0.505   4.391   9.068 -0.8784  0.1236  0.4938
12136SOL     OW37848   7.065   2.876   9.731  0.2409 -0.1482  0.2734
12136SOL    HW137849   7.000   2.937   9.768  0.2894 -0.2373  0.5065
12136SOL    HW237850   7.145   2.928   9.725 -0.1257  0.2947 -1.0542
12137SOL     OW37851   0.240   3.062   8.380  0.0389  0.4332 -0.0356
12137SOL    HW137852   0.308   3.125   8.357  1.2897 -0.6691  0.5292
12137SOL    HW237853   0.200   3.038   8.296 -1.5703  3.0968 -0.1528
12138SOL     OW37854   2.883   6.669  11.104  0.2564 -0.0123  0.0279
12138SOL    HW137855   2.805   6.647  11.053  1.2373 -0.2958 -1.4129
12138SOL    HW237856   2.888   6.765  11.098  0.2792 -0.0307 -0.2788
12139SOL     OW37857   7.629   2.740   4.983  0.2051 -0.1028 -0.4278
12139SOL    HW137858   7.700   2.792   4.944 -0.4690 -0.1048 -1.7211
12139SOL    HW237859   7.558   2.802   4.995  0.5258 -0.0209  1.2207
12140SOL     OW37860   1.890   4.460   5.199 -0.0957  0.2878  0.3802
12140SOL    HW137861   1.886   4.479   5.105  0.9248 -0.3938  0.1805
12140SOL    HW237862   1.972   4.412   5.210  0.8864  2.1677  1.9407
12141SOL     OW37863   3.287   4.653   0.000 -0.2042 -0.1345  0.0235
12141SOL    HW137864   3.211   4.607   0.036 -0.7291  0.0564 -0.8135
12141SOL    HW237865   3.315   4.712   0.071 -0.5454 -0.5332  0.4993
12142SOL     OW37866   1.269   6.307   8.692 -0.7102 -0.4946  0.8199
12142SOL    HW137867   1.208   6.235   8.675  0.0940 -0.5395 -2.5409
12142SOL    HW237868   1.353   6.264   8.707 -0.8958 -0.3199  2.5664
12143SOL     OW37869   7.535   0.420  10.660  0.4784 -0.1916  0.2280
12143SOL    HW137870   7.544   0.344  10.718 -0.8788 -0.0471  0.6682
12143SOL    HW237871   7.602   0.481  10.691  0.3474 -0.4693  1.0891
12144SOL     OW37872   7.384   7.542  10.853 -0.6779  0.6418 -0.5161
12144SOL    HW137873   7.452   7.604  10.826 -0.2565 -0.3031 -1.7069
12144SOL    HW237874   7.322   7.541  10.781 -2.6914  2.3964  1.0588
12145SOL     OW37875   2.680   6.084   9.195  0.6718 -0.1998  0.2104
12145SOL    HW137876   2.738   6.017   9.233  1.0703 -0.7108 -1.2317
12145SOL    HW237877   2.593   6.045   9.198  0.8423 -0.6238 -0.2386
12146SOL     OW37878   6.112   5.090   4.966  0.0678 -0.6997 -0.1595
12146SOL    HW137879   6.150   5.142   5.036 -0.6080  0.6210 -0.7265
12146SOL    HW237880   6.054   5.152   4.919 -0.1834 -1.7695 -1.3162
12147SOL     OW37881   5.034   0.440  10.178 -0.4006  0.2027  0.0758
12147SOL    HW137882   5.125   0.409  10.183 -0.2216  0.3969 -1.3615
12147SOL    HW237883   4.981   0.365  10.206  0.2045  0.1425  1.0877
12148SOL     OW37884   7.507   1.913   1.333  0.5620 -0.5237  0.2184
12148SOL    HW137885   7.475   1.852   1.267  0.3057  0.4879 -0.6097
12148SOL    HW237886   7.590   1.875   1.363  0.9245 -0.7484 -1.0277
12149SOL     OW37887   0.953   4.161   2.912  0.1348 -0.0964 -0.8550
12149SOL    HW137888   0.922   4.211   2.837  1.4531  0.4013 -1.0899
12149SOL    HW237889   0.879   4.160   2.972 -1.0165 -0.6765 -2.2264
12150SOL     OW37890   3.531   7.155  11.184  0.3313 -0.3760 -0.1821
12150SOL    HW137891   3.471   7.228  11.171  2.1441  1.4185  0.9704
12150SOL    HW237892   3.581   7.150  11.102  0.1434 -0.3737 -0.2967
12151SOL     OW37893   0.700   7.770   6.429 -0.0350 -0.3735  0.6734
12151SOL    HW137894   0.722   7.798   6.518 -0.4608 -3.0403  1.7146
12151SOL    HW237895   0.625   7.824   6.404  0.0209  0.3405  1.9769
12152SOL     OW37896   6.956   5.946   7.856 -0.7904 -0.7306 -0.1938
12152SOL    HW137897   6.895   6.009   7.817  0.1825  1.0044  0.9355
12152SOL    HW237898   6.914   5.861   7.843 -2.8130  0.2574 -0.6242
12153SOL     OW37899   2.505   4.027   0.634 -0.0685 -0.0216  0.7170
12153SOL    HW137900   2.519   3.937   0.665 -2.0568 -0.2631  1.0117
12153SOL    HW237901   2.432   4.020   0.572  1.8174  0.9242 -1.7894
12154SOL     OW37902   1.999   1.083  10.647  0.0724  0.1453  0.5590
12154SOL    HW137903   1.960   1.089  10.560 -0.4521 -0.9648  0.6885
12154SOL    HW237904   1.943   1.021  10.694  1.9139 -1.4837  0.7822
12155SOL     OW37905   3.151   6.779  11.765  0.0334  0.1115  0.0575
12155SOL    HW137906   3.059   6.800  11.754  0.1893  1.2293  0.7285
12155SOL    HW237907   3.192   6.862  11.789  1.0775 -0.5242  0.5622
12156SOL     OW37908   3.148   6.775  11.197 -0.2130 -0.1083 -0.2112
12156SOL    HW137909   3.106   6.802  11.279  0.6457 -2.4495  1.0859
12156SOL    HW237910   3.097   6.701  11.167  0.1841 -0.0037 -1.1858
12157SOL     OW37911   4.324   2.239  10.452 -0.3831  0.5399 -0.5848
12157SOL    HW137912   4.315   2.144  10.461  1.0001  0.4555  0.1758
12157SOL    HW237913   4.387   2.250  10.381 -0.9937  0.9187 -1.0781
12158SOL     OW37914   4.915   2.435   6.129 -0.2570  0.6632  0.3901
12158SOL    HW137915   4.855   2.371   6.168  0.2988  1.0598  1.9832
12158SOL    HW237916   4.862   2.484   6.067 -1.2052  0.0153  0.6688
12159SOL     OW37917   5.875   5.315   8.726 -0.2564  0.3547  0.2799
12159SOL    HW137918   5.828   5.240   8.689  0.0644  0.9442 -1.4387
12159SOL    HW237919   5.897   5.289   8.815 -1.0657 -1.1725  0.0587
12160SOL     OW37920   5.783   0.455   7.529 -0.2796  0.3817  0.1323
12160SOL    HW137921   5.702   0.405   7.519 -0.0676  0.0832 -0.0829
12160SOL    HW237922   5.763   0.540   7.489 -0.3317  0.1451 -0.3469
12161SOL     OW37923   0.442   6.112   2.063 -0.2666  0.2949 -0.0153
12161SOL    HW137924   0.514   6.132   2.124 -0.1843  0.4408 -0.1579
12161SOL    HW237925   0.375   6.177   2.084 -1.0823 -0.9244  1.3040
12162SOL     OW37926   0.159   7.959   5.148 -0.0172 -0.3729  0.5493
12162SOL    HW137927   0.183   7.963   5.056 -1.0545 -0.9840  0.2252
12162SOL    HW237928   0.166   8.049   5.179  0.8969 -0.2529  0.0345
12163SOL     OW37929   4.062   0.642   8.978  0.6273  0.0088  0.3302
12163SOL    HW137930   4.063   0.732   8.947 -0.5319 -0.5191 -1.3789
12163SOL    HW237931   4.039   0.649   9.071 -1.7418  1.4094 -0.2634
12164SOL     OW37932   0.682   5.364   9.210 -0.0038 -0.2646  0.0108
12164SOL    HW137933   0.695   5.325   9.123  0.2993 -0.5523  0.1863
12164SOL    HW237934   0.586   5.366   9.221 -0.0941  0.6993 -0.7510
12165SOL     OW37935   0.494   6.169   4.055  0.7028 -0.0250  0.0982
12165SOL    HW137936   0.399   6.167   4.043  0.7831 -0.3515 -0.5198
12165SOL    HW237937   0.508   6.147   4.147  0.0351  2.8302  0.9799
12166SOL     OW37938   7.194   6.492  11.521 -0.1789 -0.7472 -0.1678
12166SOL    HW137939   7.128   6.433  11.558  0.5765 -1.5451 -0.0512
12166SOL    HW237940   7.228   6.540  11.596 -1.1805  0.2526 -0.3362
12167SOL     OW37941   2.197   7.786   2.314  0.1752 -0.3314 -0.0897
12167SOL    HW137942   2.112   7.818   2.286  0.1219 -0.2496  0.1624
12167SOL    HW237943   2.234   7.858   2.366 -0.4085 -1.0769  1.4310
12168SOL     OW37944   7.931   4.949   2.705 -0.3998  0.1237 -0.5055
12168SOL    HW137945   7.862   4.952   2.772  0.7937  0.4133  0.7700
12168SOL    HW237946   7.910   5.022   2.646 -0.1065  1.5397  1.0384
12169SOL     OW37947   3.514   2.953   8.974  0.0731  0.1389  0.1300
12169SOL    HW137948   3.579   2.915   9.034  1.8872  0.6482 -1.4353
12169SOL    HW237949   3.566   3.002   8.910 -1.8764  0.5691 -1.1945
12170SOL     OW37950   2.001   5.822   6.479 -0.1387 -0.0514  0.0844
12170SOL    HW137951   1.971   5.881   6.410 -2.6070 -0.2015  0.9204
12170SOL    HW237952   1.936   5.752   6.480  0.2709 -0.4711  2.0013
12171SOL     OW37953   1.337   7.863   1.922 -0.1882  0.5781  0.4518
12171SOL    HW137954   1.351   7.913   2.003 -0.9398 -0.7480  1.4325
12171SOL    HW237955   1.270   7.799   1.944  0.6944 -0.8388 -0.7654
12172SOL     OW37956   4.116   1.923   1.529 -0.3323  0.5750  0.2403
12172SOL    HW137957   4.145   2.005   1.490  1.3115 -0.9440 -2.0236
12172SOL    HW237958   4.053   1.887   1.466  0.1886 -0.6119  0.3646
12173SOL     OW37959   2.494   2.964   6.065  0.2032  0.2068 -0.0084
12173SOL    HW137960   2.584   2.935   6.079  2.7227  4.6713 -3.7532
12173SOL    HW237961   2.490   3.050   6.106 -2.4306  0.1081  0.0881
12174SOL     OW37962   0.048   4.183   1.479 -0.1715  0.1611  0.0397
12174SOL    HW137963   0.118   4.180   1.545 -0.4846 -0.9611  0.3454
12174SOL    HW237964  -0.032   4.173   1.530 -0.4394 -0.3127 -0.4691
12175SOL     OW37965   3.452   2.739   4.513 -0.3008 -0.1493  0.2825
12175SOL    HW137966   3.485   2.805   4.451  1.2710 -0.0232  1.2047
12175SOL    HW237967   3.390   2.788   4.568  0.3356  0.4066  0.5204
12176SOL     OW37968   4.851   0.431   5.179 -0.0361  0.3577 -0.5404
12176SOL    HW137969   4.769   0.457   5.220 -0.2065  0.8534 -1.1723
12176SOL    HW237970   4.917   0.485   5.221  0.0069 -0.2214  0.1473
12177SOL     OW37971   7.720   6.386   8.412 -0.5607  0.0187 -0.7405
12177SOL    HW137972   7.749   6.447   8.479 -2.2367  0.5080 -0.4048
12177SOL    HW237973   7.676   6.316   8.461 -0.9071 -0.1379 -1.2666
12178SOL     OW37974   1.469   6.549  11.658 -0.2009  0.3431 -0.0776
12178SOL    HW137975   1.550   6.564  11.706 -0.0645  0.3570 -0.3127
12178SOL    HW237976   1.435   6.467  11.695 -0.2123  0.4720  0.1988
12179SOL     OW37977   4.294   2.083   5.885  0.0093  0.2994  0.1635
12179SOL    HW137978   4.293   2.147   5.814 -0.6280 -1.3455 -1.3740
12179SOL    HW237979   4.380   2.042   5.879  0.0922  0.4075  0.5846
12180SOL     OW37980   2.070   4.382   0.438  0.0104 -0.3856 -0.2870
12180SOL    HW137981   2.146   4.397   0.382  1.0071  1.0072  1.3104
12180SOL    HW237982   2.104   4.330   0.511 -0.5810  0.1386  0.3843
12181SOL     OW37983   1.391   2.650   6.231  0.1369  0.7675  0.1564
12181SOL    HW137984   1.317   2.662   6.292 -0.8665  2.2392 -1.2448
12181SOL    HW237985   1.433   2.570   6.260 -1.1208  0.6797  1.9376
12182SOL     OW37986   7.657   1.723   9.355 -0.2080  0.3988  0.9088
12182SOL    HW137987   7.730   1.740   9.414  0.9699 -1.8144  0.2340
12182SOL    HW237988   7.579   1.739   9.407  0.7053  2.7013  1.7031
12183SOL     OW37989   2.593   2.113   0.023  0.0377 -0.4722 -0.4802
12183SOL    HW137990   2.552   2.047  -0.032  1.8279 -2.0079 -0.0742
12183SOL    HW237991   2.649   2.163  -0.036 -0.9524  0.4215 -0.6981
12184SOL     OW37992   5.760   7.951   2.471  0.2756 -0.0690 -0.2874
12184SOL    HW137993   5.770   7.892   2.546  1.5563 -1.2662 -1.3514
12184SOL    HW237994   5.835   8.010   2.478  1.6111 -1.5072 -1.7208
12185SOL     OW37995   4.701   5.906   6.329  0.1155  0.5100  0.0424
12185SOL    HW137996   4.631   5.856   6.287 -0.3670  0.4423  0.9045
12185SOL    HW237997   4.780   5.882   6.280 -0.5598  1.1596 -1.4210
12186SOL     OW37998   2.295   3.559   6.144 -0.7646 -0.0071 -0.0396
12186SOL    HW137999   2.253   3.500   6.081 -1.3097  0.9860 -0.6151
12186SOL    HW238000   2.331   3.630   6.091 -0.8818  0.6373  0.7216
12187SOL     OW38001   2.866   4.071   0.234  0.1928 -0.3227 -0.4040
12187SOL    HW138002   2.890   3.983   0.263  1.4743 -0.1510 -0.8988
12187SOL    HW238003   2.804   4.101   0.301  1.2770 -0.8336  0.8828
12188SOL     OW38004   7.899   3.449  11.841  0.0363 -0.1974 -0.0293
12188SOL    HW138005   7.946   3.522  11.880  0.7498 -0.6191 -0.0721
12188SOL    HW238006   7.810   3.455  11.876  0.3846  0.0316  0.8384
12189SOL     OW38007   4.135   6.263   7.778 -0.4068 -0.0831 -0.1487
12189SOL    HW138008   4.193   6.339   7.788 -0.9964  0.4512 -0.6526
12189SOL    HW238009   4.048   6.298   7.794 -0.9077 -0.1846 -2.3478
12190SOL     OW38010   2.571   4.337   1.791  0.1724 -0.1991 -0.1042
12190SOL    HW138011   2.510   4.266   1.772  0.4848 -0.6548  0.5451
12190SOL    HW238012   2.656   4.293   1.802  0.2832  0.2049  0.7590
12191SOL     OW38013   6.117   3.143   5.937  0.2895  0.2267  0.5472
12191SOL    HW138014   6.031   3.184   5.927  0.3007  0.1304  0.0076
12191SOL    HW238015   6.165   3.171   5.859 -0.0785 -1.7502 -0.4434
12192SOL     OW38016   7.880   3.417  10.927 -0.3628 -0.1389  0.1730
12192SOL    HW138017   7.806   3.418  10.987  1.4955  0.5473  2.6452
12192SOL    HW238018   7.910   3.508  10.924  1.4211 -0.6733  0.6904
12193SOL     OW38019   7.094   7.547   2.732 -0.3195  0.6306 -0.2372
12193SOL    HW138020   7.110   7.583   2.644  0.1864  0.9126 -0.0336
12193SOL    HW238021   7.179   7.512   2.759 -0.2673  1.2693  0.4645
12194SOL     OW38022   3.305   0.107  10.592  0.2546 -0.2078 -0.2643
12194SOL    HW138023   3.374   0.110  10.526  1.3436 -0.5212  0.8299
12194SOL    HW238024   3.243   0.043  10.559  1.1770 -0.9315 -0.6220
12195SOL     OW38025   4.891   1.221   5.124  0.2648  0.5295 -0.5773
12195SOL    HW138026   4.941   1.144   5.095 -2.3129 -1.2824 -0.5307
12195SOL    HW238027   4.867   1.202   5.214 -0.2235  1.5175 -0.4868
12196SOL     OW38028   1.358   2.202   0.724  0.3164  0.5370 -0.4702
12196SOL    HW138029   1.276   2.218   0.677 -0.3610  0.0295  0.5065
12196SOL    HW238030   1.390   2.119   0.688 -0.7815 -0.4343  0.7015
12197SOL     OW38031   4.455   4.380   2.508  0.3324 -0.1005 -0.3319
12197SOL    HW138032   4.481   4.331   2.585 -0.6142  1.5463  1.1100
12197SOL    HW238033   4.373   4.340   2.480  1.3081 -1.5019 -1.2922
12198SOL     OW38034   2.942   6.464  10.416  0.2439 -0.3257  0.0841
12198SOL    HW138035   3.004   6.487  10.486  0.1013  2.9474 -0.7085
12198SOL    HW238036   2.897   6.387  10.449  0.7444  0.5888  3.2823
12199SOL     OW38037   4.056   7.445  12.401 -0.1605  0.0996  0.9981
12199SOL    HW138038   4.035   7.375  12.340 -1.5347  0.8379  0.5858
12199SOL    HW238039   4.147   7.428  12.426 -0.2367 -1.4175  0.3831
12200SOL     OW38040   0.535   0.780   1.840  0.2578  0.4922  0.2498
12200SOL    HW138041   0.551   0.783   1.746  0.5310 -0.5440  0.2450
12200SOL    HW238042   0.440   0.788   1.848  0.3256  1.7696 -0.0278
12201SOL     OW38043   3.132   0.903   3.497 -0.1271 -0.0937 -0.1770
12201SOL    HW138044   3.050   0.890   3.450  0.6009  1.6581 -2.1190
12201SOL    HW238045   3.109   0.960   3.570 -1.0869 -1.9423  1.0263
12202SOL     OW38046   0.298   1.063   4.119  0.1355  0.4775 -0.8819
12202SOL    HW138047   0.279   0.985   4.170  2.4186  1.1182  1.1674
12202SOL    HW238048   0.223   1.121   4.136 -0.2052 -0.1778 -0.0366
12203SOL     OW38049   0.324   1.295  10.989  0.3952 -0.1586 -0.6125
12203SOL    HW138050   0.364   1.279  10.904 -1.2770 -0.1049 -1.4548
12203SOL    HW238051   0.376   1.244  11.051  1.1312 -0.8582 -1.7828
12204SOL     OW38052   3.150   5.602   2.987  0.3076 -0.7172 -0.0221
12204SOL    HW138053   3.178   5.693   2.988  0.6309 -0.8111 -0.2064
12204SOL    HW238054   3.060   5.604   3.018  0.1121 -0.2674 -0.5892
12205SOL     OW38055   4.947   5.787   6.802 -0.6800 -0.8714 -0.5561
12205SOL    HW138056   4.890   5.828   6.737 -2.9318 -1.3498  1.0130
12205SOL    HW238057   4.940   5.844   6.879  2.0904 -0.2068 -0.7062
12206SOL     OW38058   6.448   1.365   2.906  0.1485 -0.0670 -0.1438
12206SOL    HW138059   6.518   1.300   2.909 -0.6338 -1.0112  4.7567
12206SOL    HW238060   6.373   1.318   2.870  0.9323 -0.1196 -1.8483
12207SOL     OW38061   7.814   0.618   3.133  0.4203  0.4666  0.4633
12207SOL    HW138062   7.826   0.639   3.040  1.4160 -2.6799 -0.2245
12207SOL    HW238063   7.732   0.569   3.136 -0.0983  1.3739  1.4254
12208SOL     OW38064   6.148   4.099   3.517 -0.1814  0.0811 -0.2847
12208SOL    HW138065   6.076   4.160   3.532  2.2907  3.5844 -1.3342
12208SOL    HW238066   6.200   4.104   3.597 -0.5400 -1.7162  0.1047
12209SOL     OW38067   1.157   6.029   8.745  0.7341 -0.0162  0.5220
12209SOL    HW138068   1.242   5.994   8.772  0.8756 -0.7974 -0.8487
12209SOL    HW238069   1.123   5.965   8.682 -0.0091  1.2117 -0.3813
12210SOL     OW38070   3.028   3.153   4.041 -0.3089  0.4260 -0.6937
12210SOL    HW138071   3.027   3.230   3.984  1.0374  0.2119 -1.0250
12210SOL    HW238072   3.064   3.083   3.987 -0.4853 -0.1694 -0.0577
12211SOL     OW38073   0.784   4.576  11.465  0.4953 -0.7629 -0.2114
12211SOL    HW138074   0.698   4.594  11.427  1.5517  2.5984 -1.3849
12211SOL    HW238075   0.766   4.555  11.557 -1.5836  0.3351 -0.3041
12212SOL     OW38076   6.746   4.426  12.319 -0.3234 -0.3407 -0.3432
12212SOL    HW138077   6.658   4.404  12.351 -0.4293 -1.4945 -1.3445
12212SOL    HW238078   6.730   4.472  12.236 -0.0347  2.1229  0.8516
12213SOL     OW38079   5.594   1.179   0.687 -0.2016  0.0349  0.0217
12213SOL    HW138080   5.603   1.211   0.597  0.0288  0.2322  0.1177
12213SOL    HW238081   5.639   1.243   0.741  0.1114 -0.3537  0.2307
12214SOL     OW38082   4.051   5.393  10.650  0.3443  0.0611  0.4055
12214SOL    HW138083   4.091   5.307  10.639  0.1642  0.0356 -0.0607
12214SOL    HW238084   4.051   5.431  10.562  0.7087  0.6646  0.6623
12215SOL     OW38085   0.816   5.829   8.077  0.0719  0.1673  0.3231
12215SOL    HW138086   0.767   5.909   8.095 -0.6174 -0.1665 -0.0311
12215SOL    HW238087   0.780   5.764   8.138  1.5636  0.4497  1.5643
12216SOL     OW38088   4.831   5.385   7.071 -0.4079  0.4959  0.1105
12216SOL    HW138089   4.783   5.380   7.153  0.1290  2.6174  0.5983
12216SOL    HW238090   4.794   5.314   7.017 -2.8394  0.9504  1.0696
12217SOL     OW38091   1.637   1.202   0.507 -0.3518  0.2024 -0.3506
12217SOL    HW138092   1.732   1.195   0.512 -0.4334  0.1489  2.6710
12217SOL    HW238093   1.604   1.126   0.554 -1.8477  0.9769 -0.0792
12218SOL     OW38094   3.108   7.032  10.504 -0.9212  0.1268  0.1016
12218SOL    HW138095   3.106   7.082  10.423 -1.0705  0.6015  0.3967
12218SOL    HW238096   3.114   6.940  10.475  2.3111  0.3818 -0.4458
12219SOL     OW38097   5.410   4.619  10.507  0.3657 -0.4355  0.1592
12219SOL    HW138098   5.362   4.554  10.455  0.5750 -0.1786 -0.3616
12219SOL    HW238099   5.364   4.701  10.489  1.6247  0.0152 -1.1962
12220SOL     OW38100   2.470   4.237   0.208  0.5355  0.6233 -0.4223
12220SOL    HW138101   2.558   4.245   0.171  0.7361  2.1868  0.3026
12220SOL    HW238102   2.411   4.272   0.141  0.5317  0.2499 -0.6174
12221SOL     OW38103   4.038   7.441   5.397  0.2688 -0.3130 -0.2189
12221SOL    HW138104   4.103   7.416   5.463  0.2808 -1.1386 -0.5389
12221SOL    HW238105   3.976   7.496   5.445  1.5499  1.0851 -0.0504
12222SOL     OW38106   5.051   6.516   8.809  0.3621 -0.0468 -0.1045
12222SOL    HW138107   5.005   6.433   8.815  0.4066  0.0194  1.6112
12222SOL    HW238108   5.141   6.492   8.784  0.4514 -0.5570  0.6661
12223SOL     OW38109   3.448   6.984  11.397 -0.3915 -0.0185  0.4648
12223SOL    HW138110   3.444   7.028  11.482  1.1849  1.5512 -0.2059
12223SOL    HW238111   3.457   7.055  11.334 -1.2059 -1.1713 -1.0108
12224SOL     OW38112   0.166   5.252   3.612  0.4038  0.4481 -0.4828
12224SOL    HW138113   0.179   5.249   3.707 -2.4623 -2.8864  0.0006
12224SOL    HW238114   0.090   5.310   3.600  0.5753  0.6231 -0.7453
12225SOL     OW38115   5.041   5.391   1.548  0.1248  0.7284  0.0002
12225SOL    HW138116   4.992   5.434   1.478  0.7487  0.6610 -0.4901
12225SOL    HW238117   4.995   5.416   1.628 -0.7494  0.6055 -0.4480
12226SOL     OW38118   2.882   0.280   6.851  0.5387 -0.0873  0.1579
12226SOL    HW138119   2.964   0.329   6.860  0.5134 -0.1203  0.5916
12226SOL    HW238120   2.821   0.343   6.811  0.2537  0.5309  1.5120
12227SOL     OW38121   3.620   5.851   0.650  0.1499  0.0817 -0.5020
12227SOL    HW138122   3.582   5.764   0.635 -1.0912  0.7562 -1.5482
12227SOL    HW238123   3.548   5.903   0.685 -0.0824  1.5040 -2.8743
12228SOL     OW38124   1.013   4.105   0.250  0.4335  0.1189  0.0015
12228SOL    HW138125   0.952   4.162   0.296  1.4349 -0.4862  2.2323
12228SOL    HW238126   0.957   4.046   0.199 -0.6743  1.6425 -0.6109
12229SOL     OW38127   3.636   2.575   1.639  0.2618 -0.6517 -0.2874
12229SOL    HW138128   3.550   2.587   1.600  1.2919  1.0855 -2.2315
12229SOL    HW238129   3.679   2.510   1.583  0.2492 -1.5770  0.7202
12230SOL     OW38130   6.069   5.127   1.840 -0.1303 -0.0548  0.3044
12230SOL    HW138131   6.163   5.114   1.844 -0.3565 -1.9953  0.1425
12230SOL    HW238132   6.043   5.140   1.931  0.1653 -0.6124  0.4724
12231SOL     OW38133   4.855   0.515   0.148  0.2742  0.8571 -0.5119
12231SOL    HW138134   4.804   0.452   0.098  0.6136 -0.6875  0.9678
12231SOL    HW238135   4.922   0.462   0.192  1.5776  2.4775 -0.4390
12232SOL     OW38136   2.084   5.167   6.387 -0.0471 -0.2818  0.2887
12232SOL    HW138137   2.099   5.092   6.445 -0.0612  1.3087  2.4703
12232SOL    HW238138   2.005   5.209   6.421 -0.8920 -0.0383 -1.7906
12233SOL     OW38139   7.772   2.146   0.197  0.0846  0.0060 -0.4529
12233SOL    HW138140   7.851   2.157   0.250  0.2594 -0.1722 -0.6744
12233SOL    HW238141   7.705   2.196   0.243  0.5547  0.9569 -0.7693
12234SOL     OW38142   4.794   6.599   8.663 -0.1164 -0.1398 -0.0828
12234SOL    HW138143   4.740   6.662   8.711  1.2246  0.0585  1.2499
12234SOL    HW238144   4.866   6.580   8.723 -0.3306 -2.7572 -0.5375
12235SOL     OW38145   2.645   1.845  10.848  0.0119  0.0296  0.9690
12235SOL    HW138146   2.641   1.914  10.782  0.0180  1.1996  2.1509
12235SOL    HW238147   2.620   1.889  10.930 -0.5436 -1.5013  1.6579
12236SOL     OW38148   0.776   1.936   6.633  0.0703  0.4433 -0.4514
12236SOL    HW138149   0.708   1.933   6.700 -1.0114 -0.0560 -1.5282
12236SOL    HW238150   0.849   1.885   6.669 -0.2664  0.6581  0.5531
12237SOL     OW38151   4.152   2.463   5.812  0.1967 -0.1891 -0.0769
12237SOL    HW138152   4.063   2.437   5.788 -0.2064  1.2908 -0.2687
12237SOL    HW238153   4.201   2.459   5.730  0.1057 -0.2084 -0.1301
12238SOL     OW38154   0.167   6.469   9.291  0.1335  0.2443  0.7188
12238SOL    HW138155   0.260   6.470   9.264  0.2106 -1.4312  0.8228
12238SOL    HW238156   0.164   6.408   9.364 -0.9413  0.9062  1.2476
12239SOL     OW38157   0.970   3.345   1.447 -0.2130  0.1565 -0.5399
12239SOL    HW138158   0.962   3.261   1.402  1.1940  0.0535 -0.6181
12239SOL    HW238159   1.015   3.326   1.529 -0.2988  0.7722 -0.3380
12240SOL     OW38160   2.154   0.290  11.722  0.5491  0.3117  0.1228
12240SOL    HW138161   2.164   0.217  11.661  2.5412  1.6068 -1.2211
12240SOL    HW238162   2.237   0.293  11.771  0.9525  2.2272 -0.5730
12241SOL     OW38163   3.148   4.381   4.392  0.6393  0.2505 -0.0955
12241SOL    HW138164   3.084   4.421   4.451 -0.6429 -0.5327 -0.9087
12241SOL    HW238165   3.159   4.292   4.426  2.9248  0.9678  1.2726
12242SOL     OW38166   4.370   0.212   3.767 -0.3071 -0.2276  0.3013
12242SOL    HW138167   4.331   0.238   3.850 -4.4715 -0.5909 -1.3241
12242SOL    HW238168   4.372   0.292   3.715  0.1311 -0.4371 -0.0120
12243SOL     OW38169   1.508   0.019   1.750 -0.5598 -0.0272 -0.0084
12243SOL    HW138170   1.452  -0.023   1.816 -1.4185  0.6549 -0.2733
12243SOL    HW238171   1.589   0.040   1.796 -0.7255 -0.5524  0.5357
12244SOL     OW38172   1.832   3.986   0.765  0.6789 -0.4808 -0.1146
12244SOL    HW138173   1.834   4.038   0.684 -0.6358 -1.9488 -1.1460
12244SOL    HW238174   1.836   4.052   0.835  0.2035  0.9510 -1.3686
12245SOL     OW38175   2.017   0.922   6.925  0.2604  0.1627 -0.1602
12245SOL    HW138176   1.982   0.837   6.950  1.5883 -0.1933  0.6382
12245SOL    HW238177   1.957   0.955   6.859 -1.9853 -0.0313  1.6381
12246SOL     OW38178   5.912   1.768   4.950  0.0237  0.0268 -0.1096
12246SOL    HW138179   5.862   1.691   4.925  0.2476  0.2708 -1.3721
12246SOL    HW238180   5.853   1.842   4.936 -0.0464  0.1334  0.6850
12247SOL     OW38181   4.930   4.284   7.124 -0.0900  0.4357  0.5030
12247SOL    HW138182   4.846   4.279   7.079 -1.1046 -1.0302  2.4253
12247SOL    HW238183   4.976   4.204   7.098  0.2725  0.6950  0.3280
12248SOL     OW38184   6.073   1.630   7.716 -0.0464 -0.8418 -0.5407
12248SOL    HW138185   6.125   1.710   7.721  2.7034 -2.5592  0.7798
12248SOL    HW238186   5.986   1.656   7.748  0.8726  1.5109  0.2789
12249SOL     OW38187   2.909   2.437   4.362 -0.3406 -0.1160 -0.4067
12249SOL    HW138188   2.970   2.363   4.360  2.4209  1.8779  1.3426
12249SOL    HW238189   2.917   2.477   4.275 -2.6745 -2.2877 -1.7619
12250SOL     OW38190   5.204   0.173   0.830  0.0989 -0.0321 -0.6224
12250SOL    HW138191   5.185   0.086   0.865 -3.0641  0.5922 -0.4423
12250SOL    HW238192   5.253   0.217   0.898  1.2231 -1.4607 -0.4717
12251SOL     OW38193   2.563   0.506   9.598  0.1823  0.1610  0.3774
12251SOL    HW138194   2.604   0.457   9.526  2.5152  0.8876  1.1381
12251SOL    HW238195   2.636   0.546   9.645 -1.4418  1.7048  1.7312
12252SOL     OW38196   4.924   7.210   8.498  0.3365 -0.3305  0.1469
12252SOL    HW138197   4.845   7.250   8.461  0.1478  0.9206  1.7666
12252SOL    HW238198   4.918   7.118   8.474 -0.7574  0.0430 -1.1638
12253SOL     OW38199   5.362   6.986   5.002  0.0249 -0.2712 -0.0935
12253SOL    HW138200   5.420   6.973   5.077 -0.1805  0.8268  0.2682
12253SOL    HW238201   5.276   7.001   5.040 -0.5873 -2.1594 -0.6378
12254SOL     OW38202   4.242   6.000   6.001  0.1331 -0.3321  0.5293
12254SOL    HW138203   4.307   5.998   6.070  0.1754 -0.2232  0.4931
12254SOL    HW238204   4.287   6.038   5.926 -0.8292  2.7828  1.4020
12255SOL     OW38205   7.391   4.147  10.817 -0.0274  0.0671  0.0621
12255SOL    HW138206   7.440   4.199  10.754 -1.4006 -0.1354 -1.2521
12255SOL    HW238207   7.332   4.209  10.859  0.3897  0.0738  0.6470
12256SOL     OW38208   6.991   7.899   0.487  0.0120 -0.0739  0.4018
12256SOL    HW138209   6.909   7.947   0.475  0.0952  0.1494  0.7163
12256SOL    HW238210   6.969   7.809   0.466  0.4157  0.4304 -2.6289
12257SOL     OW38211   1.404   1.594   0.738  0.0786  0.0769  0.2289
12257SOL    HW138212   1.472   1.566   0.799  1.3079  0.8075 -0.7682
12257SOL    HW238213   1.451   1.619   0.659 -1.4014  0.1240 -0.6708
12258SOL     OW38214   7.116   0.715   0.490  0.0134  0.5464 -0.1001
12258SOL    HW138215   7.103   0.806   0.515 -1.0133  0.0160  1.3909
12258SOL    HW238216   7.197   0.689   0.535 -0.5013  0.3009  0.6932
12259SOL     OW38217   7.030   5.578   3.062  0.0009 -0.2359  0.4398
12259SOL    HW138218   7.060   5.629   3.138 -1.4352 -0.7772  1.4208
12259SOL    HW238219   6.934   5.582   3.067 -0.1242 -0.8742 -0.9542
12260SOL     OW38220   5.742   2.280   3.392  0.3054 -0.6873  0.7192
12260SOL    HW138221   5.739   2.333   3.312 -2.0074 -0.1796  1.0797
12260SOL    HW238222   5.729   2.343   3.463 -1.7959 -1.5728  1.1930
12261SOL     OW38223   4.692   2.469   7.708 -0.1368 -0.4089 -0.1189
12261SOL    HW138224   4.645   2.460   7.791 -0.2761  0.7209 -0.0677
12261SOL    HW238225   4.635   2.523   7.653  1.1298  1.0673 -0.0255
12262SOL     OW38226   1.583   7.690   8.337  0.0524 -0.5527  0.1486
12262SOL    HW138227   1.656   7.752   8.332 -0.3063 -0.1534 -0.0581
12262SOL    HW238228   1.577   7.653   8.249  0.2423 -0.8586  0.2622
12263SOL     OW38229   0.344   2.975   5.213 -0.2158  0.1162  0.1701
12263SOL    HW138230   0.320   3.011   5.128  0.4346  0.1321 -0.0185
12263SOL    HW238231   0.397   2.898   5.192  0.7207  0.6330  0.5406
12264SOL     OW38232   2.444   4.840   7.742 -0.1281  0.2277  0.0032
12264SOL    HW138233   2.501   4.764   7.733 -0.4766 -0.1977  1.2875
12264SOL    HW238234   2.503   4.915   7.734  0.5392 -0.1985  0.8312
12265SOL     OW38235   1.628   1.570   7.185  0.1280 -0.0658 -0.3861
12265SOL    HW138236   1.587   1.484   7.178  1.6857 -0.7502 -1.6274
12265SOL    HW238237   1.648   1.580   7.278 -1.5316 -0.3110  0.0185
12266SOL     OW38238   3.835   0.920   3.034 -0.1567 -0.0338 -0.1212
12266SOL    HW138239   3.905   0.870   2.992  0.4822  1.8800 -1.4968
12266SOL    HW238240   3.822   0.877   3.119  2.9914 -0.2095  0.3883
12267SOL     OW38241   5.264   7.538   7.369  0.3521  0.6131  0.4182
12267SOL    HW138242   5.183   7.487   7.373  1.0238 -0.7657 -1.9106
12267SOL    HW238243   5.244   7.612   7.313  0.9647 -0.3531 -1.1259
12268SOL     OW38244   5.332   2.625   8.239  0.5849  0.2415  0.2146
12268SOL    HW138245   5.385   2.556   8.281 -0.6359 -0.5741  0.4664
12268SOL    HW238246   5.263   2.643   8.301  0.5057  1.2357 -0.1537
12269SOL     OW38247   6.704   4.017   0.686  0.0546 -0.0727 -0.5369
12269SOL    HW138248   6.721   3.999   0.778 -0.6977  1.4277 -0.0797
12269SOL    HW238249   6.766   4.086   0.662 -1.4701  1.3983 -0.4071
12270SOL     OW38250   2.402   0.565   3.271 -0.1596  0.1012 -0.9896
12270SOL    HW138251   2.479   0.605   3.313  1.6414 -2.0166 -2.0466
12270SOL    HW238252   2.363   0.636   3.220 -1.8829  2.5429  3.2048
12271SOL     OW38253   0.308   4.514   0.646  0.0361 -0.4229 -0.0376
12271SOL    HW138254   0.258   4.590   0.615  1.5502  0.4662 -0.4024
12271SOL    HW238255   0.294   4.448   0.578  0.4531  0.2898 -0.8415
12272SOL     OW38256   2.390   7.932   8.418 -0.5405  0.2325 -0.3151
12272SOL    HW138257   2.308   7.907   8.376  0.1119 -1.3208 -0.7341
12272SOL    HW238258   2.432   7.849   8.440  1.7740  0.9108 -1.7804
12273SOL     OW38259   2.693   2.621  12.086  0.7303 -0.6264 -0.3365
12273SOL    HW138260   2.619   2.575  12.046  1.0307 -1.8467  0.4612
12273SOL    HW238261   2.764   2.614  12.022  0.8540 -1.5332 -0.1160
12274SOL     OW38262   0.998   4.214  10.834  0.2002  0.0713 -0.0580
12274SOL    HW138263   0.975   4.299  10.872 -0.2911 -0.5208  1.0272
12274SOL    HW238264   1.092   4.205  10.850 -0.2312 -0.7906  2.4309
12275SOL     OW38265   3.381   6.878   8.510 -0.1561  0.0456  0.4805
12275SOL    HW138266   3.427   6.849   8.589  2.1364  0.0008 -0.7801
12275SOL    HW238267   3.414   6.967   8.495 -1.3081  0.4218  0.1005
12276SOL     OW38268   4.948   6.477   2.287 -0.6996 -0.2291 -0.0914
12276SOL    HW138269   4.956   6.394   2.239  0.3120  0.6409 -1.4769
12276SOL    HW238270   5.037   6.512   2.289 -1.1521  0.9296  0.3141
12277SOL     OW38271   7.288   0.795   3.201  0.2257  0.0688  0.2856
12277SOL    HW138272   7.201   0.832   3.212  0.9752  2.8990 -2.0984
12277SOL    HW238273   7.347   0.860   3.240  1.3381 -1.5681  1.4460
12278SOL     OW38274   7.338   2.193   9.602 -0.4003  0.2501 -0.1147
12278SOL    HW138275   7.242   2.192   9.607 -0.4453  1.2137 -0.5643
12278SOL    HW238276   7.357   2.177   9.510 -0.2085  2.0411 -0.4183
12279SOL     OW38277   1.263   5.934   6.933 -0.8978  0.1348 -0.1821
12279SOL    HW138278   1.352   5.903   6.949 -0.8629 -0.3627 -1.2209
12279SOL    HW238279   1.227   5.949   7.020  0.3732  0.8707  0.2554
12280SOL     OW38280   3.463   0.918   8.122 -0.3266 -0.5870 -0.4058
12280SOL    HW138281   3.453   0.989   8.185 -0.6528  0.4531 -1.6044
12280SOL    HW238282   3.519   0.854   8.167 -0.6538  0.0547  0.9769
12281SOL     OW38283   2.999   3.765  11.843 -0.8000 -0.3179  0.2755
12281SOL    HW138284   3.065   3.696  11.846 -0.7473 -0.4783 -2.5406
12281SOL    HW238285   3.044   3.840  11.805 -1.9564 -0.1457 -0.8202
12282SOL     OW38286   1.500   0.407   2.439 -0.1042  0.1089  0.2771
12282SOL    HW138287   1.556   0.332   2.421  0.4138  0.7657 -0.9548
12282SOL    HW238288   1.486   0.405   2.533  3.9209  1.2391  1.0695
12283SOL     OW38289   2.172   3.632  10.770  0.3224  0.4477 -0.1984
12283SOL    HW138290   2.218   3.558  10.731  0.7846 -0.5344  2.1027
12283SOL    HW238291   2.234   3.669  10.833  0.0078  2.6816 -1.1039
12284SOL     OW38292   1.751   3.622   2.506  0.2646  0.5369 -0.0915
12284SOL    HW138293   1.674   3.679   2.509  0.0673  0.2217  1.1703
12284SOL    HW238294   1.775   3.620   2.413 -2.6033 -1.1912 -0.8958
12285SOL     OW38295   3.068   1.076   7.198  0.2966 -0.2338 -0.3068
12285SOL    HW138296   3.011   1.097   7.124  1.0090  0.5014 -0.6587
12285SOL    HW238297   3.069   1.155   7.252  0.6902 -0.3690 -0.1096
12286SOL     OW38298   1.822   6.218   5.720 -0.1332  0.4847 -0.3003
12286SOL    HW138299   1.890   6.229   5.786 -0.2181  0.1930 -0.1613
12286SOL    HW238300   1.752   6.171   5.765  0.1867 -0.5486 -0.8389
12287SOL     OW38301   7.387   0.027   9.698 -0.0306  0.0036  0.5246
12287SOL    HW138302   7.329  -0.040   9.735 -1.7818  1.6882  1.0318
12287SOL    HW238303   7.330   0.078   9.641  1.3698  0.7708 -0.2359
12288SOL     OW38304   7.537   5.849  10.770 -0.7018 -0.1560 -0.6655
12288SOL    HW138305   7.621   5.806  10.785 -0.0814  0.5513 -1.8910
12288SOL    HW238306   7.514   5.888  10.854 -1.4716 -3.0703  0.6302
12289SOL     OW38307   5.831   7.473   3.701  0.3808  0.4305  0.4533
12289SOL    HW138308   5.885   7.532   3.649  0.6761  0.0292  0.3069
12289SOL    HW238309   5.766   7.439   3.639  0.5091  0.2291  0.4307
12290SOL     OW38310   1.673   4.003   4.972  0.0785 -0.1042 -0.2842
12290SOL    HW138311   1.587   3.961   4.966  0.1854 -0.2591 -0.8659
12290SOL    HW238312   1.724   3.947   5.029 -0.3702  0.2788  0.5043
12291SOL     OW38313   2.313   4.473   7.590  0.8038  0.1544  0.3932
12291SOL    HW138314   2.402   4.491   7.559  0.7135  1.9636  1.0853
12291SOL    HW238315   2.318   4.385   7.628  1.6287 -0.9006 -1.9542
12292SOL     OW38316   0.491   3.658   5.257 -0.0613 -0.1122 -0.2277
12292SOL    HW138317   0.553   3.626   5.191 -0.3437 -0.8986 -0.1227
12292SOL    HW238318   0.503   3.753   5.257  1.3514 -0.2629 -0.0118
12293SOL     OW38319   6.641   4.131  10.509  0.3548 -1.0011  0.0594
12293SOL    HW138320   6.616   4.082  10.430 -0.3800 -0.9567  0.2573
12293SOL    HW238321   6.729   4.098  10.530  1.8281  0.9931 -2.3910
12294SOL     OW38322   3.040   0.994   5.189 -0.3092  0.3778 -0.4500
12294SOL    HW138323   3.046   0.899   5.197 -2.6111  0.2944  1.3237
12294SOL    HW238324   3.087   1.028   5.265 -0.6499  0.6025 -0.3372
12295SOL     OW38325   1.871   5.015  10.906  0.0530 -0.3225  0.0834
12295SOL    HW138326   1.892   4.966  10.985 -0.3836 -0.3134  0.2095
12295SOL    HW238327   1.864   5.106  10.936  1.8001 -0.0195 -0.3163
12296SOL     OW38328   2.619   3.095   4.191 -0.3910  0.0931 -0.2507
12296SOL    HW138329   2.529   3.066   4.178 -0.6961  0.7728  0.2675
12296SOL    HW238330   2.623   3.122   4.283  1.0041 -2.1841  0.4456
12297SOL     OW38331   7.970   3.794  10.063  0.2707  0.4291  0.0740
12297SOL    HW138332   7.883   3.784  10.023  0.1774 -0.4647  0.4628
12297SOL    HW238333   8.020   3.845  10.000  0.0315 -0.6635 -1.0461
12298SOL     OW38334   6.591   2.693   1.671 -0.0216 -0.0257 -0.0904
12298SOL    HW138335   6.577   2.600   1.690 -2.0997  0.3820  0.6497
12298SOL    HW238336   6.609   2.732   1.756 -1.1110  0.5228 -0.0902
12299SOL     OW38337   0.816   4.666   7.360  0.3547 -0.1487  0.8027
12299SOL    HW138338   0.807   4.620   7.443  0.8953 -0.1250  0.8786
12299SOL    HW238339   0.732   4.654   7.317  1.3678 -3.9076 -0.5724
12300SOL     OW38340   3.803   6.041   9.175 -0.0764 -0.3443 -0.9881
12300SOL    HW138341   3.879   6.096   9.195  0.9209 -1.3848 -1.7800
12300SOL    HW238342   3.820   5.959   9.222 -1.2694 -0.1888 -0.2646
12301SOL     OW38343   0.436   2.643   5.518 -0.1482 -0.8050 -0.3538
12301SOL    HW138344   0.455   2.575   5.453 -2.4121 -2.4675  0.5974
12301SOL    HW238345   0.402   2.595   5.593 -0.4075  1.3026  0.9351
12302SOL     OW38346   1.485   3.824   6.814  0.0437 -0.0284 -0.0422
12302SOL    HW138347   1.481   3.919   6.798  1.5217  0.0517 -0.0746
12302SOL    HW238348   1.518   3.817   6.903 -0.9980 -0.5256  0.3151
12303SOL     OW38349   1.863   4.288  10.410  0.1539  0.0541 -0.4862
12303SOL    HW138350   1.899   4.211  10.454  1.2688  0.4252 -0.7043
12303SOL    HW238351   1.871   4.268  10.316 -1.5700 -0.4491 -0.5506
12304SOL     OW38352   0.233   4.922   9.748 -0.0333  0.0911  0.3158
12304SOL    HW138353   0.194   4.884   9.669 -0.1783 -0.4847  0.6580
12304SOL    HW238354   0.161   4.927   9.810 -0.6215  3.1946 -0.4664
12305SOL     OW38355   5.664   7.251   2.531  0.0305  0.2995  0.2923
12305SOL    HW138356   5.644   7.210   2.615 -1.1164  0.5110  0.1367
12305SOL    HW238357   5.659   7.181   2.467  1.2804  0.0602  0.4231
12306SOL     OW38358   3.021   7.899   4.699 -0.1313 -0.6274  0.2399
12306SOL    HW138359   3.111   7.929   4.691 -0.3135  0.0218  0.5260
12306SOL    HW238360   3.023   7.809   4.668  0.4555 -0.3631 -0.5343
12307SOL     OW38361   0.898   6.845   5.027 -0.3350  0.1281 -0.2864
12307SOL    HW138362   0.859   6.842   4.939 -0.0534 -2.5718 -0.4170
12307SOL    HW238363   0.992   6.839   5.011 -0.2079  0.7854  0.1929
12308SOL     OW38364   0.258   0.237   6.066 -0.1148  0.1363  0.2937
12308SOL    HW138365   0.222   0.315   6.023 -1.9849 -0.5730  0.4595
12308SOL    HW238366   0.331   0.211   6.010 -1.3281  0.3047 -1.4633
12309SOL     OW38367   6.760   6.390   9.854 -0.6126  0.2068 -0.1084
12309SOL    HW138368   6.841   6.395   9.803  0.1079 -0.9028  0.8732
12309SOL    HW238369   6.734   6.298   9.848 -0.8354  0.1815  1.0212
12310SOL     OW38370   5.233   5.062   8.879  0.0398 -0.0049  0.4721
12310SOL    HW138371   5.286   4.983   8.890  0.0278 -0.0837 -0.0144
12310SOL    HW238372   5.143   5.033   8.891 -0.1155 -0.4193 -1.3425
12311SOL     OW38373   0.686   7.236   6.468 -0.3278 -0.4442  0.0858
12311SOL    HW138374   0.774   7.214   6.439 -0.2177 -1.7468  1.3201
12311SOL    HW238375   0.629   7.177   6.419 -0.5425  0.4213 -0.7381
12312SOL     OW38376   1.469   6.205   6.164 -0.3598  0.3596 -0.1981
12312SOL    HW138377   1.488   6.136   6.227 -1.2743  0.0214 -0.2781
12312SOL    HW238378   1.509   6.284   6.201 -1.9707  0.4455  1.4503
12313SOL     OW38379   2.296   3.990   0.093 -0.0164 -0.3623  0.7498
12313SOL    HW138380   2.391   3.979   0.100 -0.0814 -0.4943  1.5319
12313SOL    HW238381   2.264   3.905   0.062  0.1717 -0.1408 -0.0662
12314SOL     OW38382   2.369   1.243   4.743  0.1781 -0.2740 -0.9142
12314SOL    HW138383   2.287   1.292   4.742  0.2630 -0.1227 -0.4958
12314SOL    HW238384   2.426   1.291   4.804 -0.2346 -1.6847  0.6762
12315SOL     OW38385   5.024   6.752   5.745 -0.2377 -0.5875  0.2684
12315SOL    HW138386   5.059   6.665   5.726 -0.3552 -0.5054 -0.3657
12315SOL    HW238387   4.973   6.774   5.666 -2.5293 -1.1248  1.5015
12316SOL     OW38388   2.965   6.481   2.798 -0.2401  0.0926 -0.3389
12316SOL    HW138389   3.024   6.427   2.851 -0.9692 -1.3783 -0.9707
12316SOL    HW238390   2.913   6.530   2.862  0.0737 -0.3522  0.2611
12317SOL     OW38391   7.971   4.855  11.318  0.1249 -0.2153 -0.1208
12317SOL    HW138392   7.923   4.800  11.379  0.5143 -0.4236  0.0029
12317SOL    HW238393   8.011   4.793  11.256 -0.5362  0.0091 -0.7937
12318SOL     OW38394   5.796   4.828   8.430  0.3640  0.3710  0.0844
12318SOL    HW138395   5.814   4.832   8.336  1.2755 -0.2271  0.2288
12318SOL    HW238396   5.864   4.881   8.470  1.2471 -1.0623  0.5517
12319SOL     OW38397   2.380   3.082   5.841 -0.6245  0.1529  0.5921
12319SOL    HW138398   2.287   3.079   5.866 -0.3775 -0.1028  1.5343
12319SOL    HW238399   2.423   3.024   5.905  0.0130 -0.7410 -0.6178
12320SOL     OW38400   4.666   4.680   5.980  0.4894 -0.8358  0.4264
12320SOL    HW138401   4.640   4.695   5.889  0.5185  1.5171  0.7415
12320SOL    HW238402   4.697   4.590   5.981  2.1701 -0.4188 -2.3068
12321SOL     OW38403   4.460   1.963   4.985  0.0368  0.1954 -0.0517
12321SOL    HW138404   4.554   1.961   4.969  0.4710  1.2635  2.0407
12321SOL    HW238405   4.449   2.023   5.058 -2.3587  0.5911 -0.6440
12322SOL     OW38406   3.428   6.840   6.980  0.1799 -0.1895 -0.1411
12322SOL    HW138407   3.521   6.829   6.961  0.2213  0.0351 -0.0733
12322SOL    HW238408   3.423   6.841   7.076  0.3499  1.6806 -0.1155
12323SOL     OW38409   7.336   6.828   6.316 -0.5733  0.7084  0.5119
12323SOL    HW138410   7.432   6.829   6.319 -0.5560  0.2201  0.1662
12323SOL    HW238411   7.314   6.888   6.245 -0.4619 -0.5226 -0.5912
12324SOL     OW38412   1.699   3.834   9.137  0.4473 -0.4286  0.3066
12324SOL    HW138413   1.767   3.816   9.073  0.8621  2.4568 -0.2004
12324SOL    HW238414   1.747   3.850   9.219  0.0659 -1.9758  0.8664
12325SOL     OW38415   0.924   7.967   9.177  0.2251  0.1076 -0.2489
12325SOL    HW138416   0.891   7.958   9.088  1.3598  1.5704 -0.8524
12325SOL    HW238417   0.871   8.035   9.217  0.2772  0.0569 -0.0892
12326SOL     OW38418   3.655   7.807   2.694  0.6646 -0.5629 -0.4965
12326SOL    HW138419   3.686   7.850   2.614  1.2063 -1.5406 -0.8350
12326SOL    HW238420   3.579   7.757   2.666  0.2616 -0.1313 -0.1848
12327SOL     OW38421   6.130   6.547  10.783 -0.1727 -0.5793 -0.1353
12327SOL    HW138422   6.169   6.594  10.709  1.1384 -2.5135 -0.7254
12327SOL    HW238423   6.114   6.615  10.849 -0.8886  1.1157 -1.9657
12328SOL     OW38424   6.258   0.447  10.372 -0.4990 -0.4533  0.3082
12328SOL    HW138425   6.215   0.517  10.323  1.1860 -0.2461 -0.9403
12328SOL    HW238426   6.274   0.485  10.459 -0.8005  0.2360  0.0678
12329SOL     OW38427   4.341   7.816  10.323 -0.3264  0.1503  0.1109
12329SOL    HW138428   4.416   7.870  10.349 -0.8208  0.2710  1.3442
12329SOL    HW238429   4.358   7.794  10.231  1.8507 -0.8550  0.6837
12330SOL     OW38430   1.581   2.946   4.464 -0.1836 -0.0899 -0.6134
12330SOL    HW138431   1.563   3.038   4.445 -0.4462 -0.0138 -0.0304
12330SOL    HW238432   1.545   2.898   4.389 -1.1039  0.2016 -0.3657
12331SOL     OW38433   2.719   6.271   3.383  0.0198  0.2259  0.7238
12331SOL    HW138434   2.688   6.359   3.360  0.0775 -0.0513 -0.4752
12331SOL    HW238435   2.814   6.276   3.372 -0.1502 -0.6470 -1.9400
12332SOL     OW38436   4.623   7.568   5.687  0.0588 -0.5598 -0.2171
12332SOL    HW138437   4.546   7.624   5.681  0.6747  0.3693  0.2726
12332SOL    HW238438   4.593   7.483   5.655 -0.9221  0.0163 -0.9006
12333SOL     OW38439   2.859   2.299   1.067  0.0957  0.0652  0.1323
12333SOL    HW138440   2.915   2.231   1.104 -1.9856 -0.9530  1.5630
12333SOL    HW238441   2.792   2.251   1.017 -0.4947  1.1491 -0.1591
12334SOL     OW38442   5.007   1.067  11.283 -0.0286 -0.2468 -0.4732
12334SOL    HW138443   4.966   1.077  11.369 -1.7163 -2.5651 -0.9231
12334SOL    HW238444   5.023   0.973  11.275  1.7562  0.1319 -2.0117
12335SOL     OW38445   6.238   7.622  11.423  0.8131 -0.5737 -0.7456
12335SOL    HW138446   6.213   7.709  11.455 -1.2633 -0.5250 -2.3267
12335SOL    HW238447   6.280   7.581  11.499  2.9561  2.1561 -0.2722
12336SOL     OW38448   3.797   3.426   7.054  0.1557  0.6214 -0.5337
12336SOL    HW138449   3.706   3.453   7.040 -0.4689 -0.8744  0.4180
12336SOL    HW238450   3.791   3.336   7.085  1.9484  0.6498  0.0053
12337SOL     OW38451   7.072   7.461   8.983  0.0927 -0.5827 -0.0074
12337SOL    HW138452   7.139   7.436   8.920 -0.4917 -0.6749 -0.6020
12337SOL    HW238453   7.118   7.515   9.047  0.5279  0.2408 -0.9848
12338SOL     OW38454   3.985   2.951   6.384 -0.6396 -0.0182 -0.0752
12338SOL    HW138455   3.964   3.029   6.333  1.8935  0.0176 -1.2489
12338SOL    HW238456   4.045   2.982   6.452 -1.2070 -0.6399  0.7306
12339SOL     OW38457   3.906   2.814   8.079 -0.1389  0.4387 -0.5372
12339SOL    HW138458   3.940   2.874   8.145  1.7925 -0.2742 -0.8055
12339SOL    HW238459   3.830   2.774   8.121  0.2098  1.0220  0.7239
12340SOL     OW38460   2.087   6.570   7.943 -0.2508  0.5138  0.4510
12340SOL    HW138461   2.018   6.549   8.006 -1.1272 -0.0717 -0.6691
12340SOL    HW238462   2.163   6.518   7.973 -0.6562  0.2190  0.9954
12341SOL     OW38463   1.706   0.344   4.815 -0.1028  0.1802  0.5366
12341SOL    HW138464   1.618   0.366   4.785 -0.0545 -1.4459 -0.9195
12341SOL    HW238465   1.695   0.262   4.864  0.2870  1.2125  2.4696
12342SOL     OW38466   7.682   1.061   6.659  0.0401  0.1667  0.7124
12342SOL    HW138467   7.648   0.982   6.617  1.0743 -0.6382  1.3277
12342SOL    HW238468   7.732   1.105   6.590 -2.7007  1.7503 -0.4198
12343SOL     OW38469   7.109   7.419   8.250  0.0205  0.7052  0.0038
12343SOL    HW138470   7.204   7.413   8.260  0.0245  0.2836 -0.2630
12343SOL    HW238471   7.074   7.378   8.329  0.0604 -0.1612 -0.4193
12344SOL     OW38472   6.444   7.082  11.686 -0.1350 -0.0747  0.2170
12344SOL    HW138473   6.400   7.156  11.728  1.5393  1.2788 -0.3090
12344SOL    HW238474   6.409   7.005  11.731 -2.3151  0.9593  0.4480
12345SOL     OW38475   1.574   5.014  10.652  0.2141  0.1548  0.0258
12345SOL    HW138476   1.485   4.981  10.651  0.1251  0.3887 -0.3082
12345SOL    HW238477   1.629   4.936  10.654  0.0195 -0.0579 -1.3452
12346SOL     OW38478   3.953   7.051  10.021  1.0777 -0.8795 -0.7219
12346SOL    HW138479   3.994   6.979  10.070  2.3902 -1.5880 -2.7346
12346SOL    HW238480   4.024   7.088   9.968  0.1746  1.1963 -0.6000
12347SOL     OW38481   6.743   6.722  12.422  0.0045  0.2363  0.6584
12347SOL    HW138482   6.699   6.713  12.506 -1.1200 -1.7131 -0.0889
12347SOL    HW238483   6.795   6.642  12.413 -0.7394 -0.1099 -0.9569
12348SOL     OW38484   6.583   4.160   6.997 -0.1563 -0.7733  0.1833
12348SOL    HW138485   6.579   4.251   7.027  0.1010 -0.3390 -1.0114
12348SOL    HW238486   6.503   4.120   7.031 -0.4603  0.0108  0.4214
12349SOL     OW38487   3.480   4.175   4.469 -0.1444  0.3249  0.6322
12349SOL    HW138488   3.547   4.112   4.498 -0.5841 -0.4174  0.0709
12349SOL    HW238489   3.401   4.148   4.515 -0.1381  1.0270  1.0719
12350SOL     OW38490   7.380   0.679   2.005 -0.2192  0.1076  0.2632
12350SOL    HW138491   7.308   0.732   2.039 -0.4832 -0.4294  0.5579
12350SOL    HW238492   7.427   0.737   1.945 -1.4515  0.1773 -0.6628
12351SOL     OW38493   5.013   2.398   2.515  0.1813 -0.6372  0.4141
12351SOL    HW138494   5.035   2.427   2.427 -2.6331  0.6614  0.0492
12351SOL    HW238495   5.078   2.440   2.572  1.0325 -0.1744 -0.8728
12352SOL     OW38496   5.271   1.174   8.815 -0.2114 -0.2331 -0.3637
12352SOL    HW138497   5.322   1.137   8.887 -0.3026 -1.9848 -1.1483
12352SOL    HW238498   5.193   1.210   8.857  1.5355  2.4940  0.8645
12353SOL     OW38499   2.331   4.006   2.170 -0.4664 -0.2011 -0.0303
12353SOL    HW138500   2.359   4.065   2.240  3.4824  1.8946 -2.9543
12353SOL    HW238501   2.269   4.057   2.118  0.0936  0.0164 -0.4999
12354SOL     OW38502   7.252   1.219   3.854  0.1812 -0.2834  0.4759
12354SOL    HW138503   7.287   1.288   3.798 -0.6819 -0.2319 -0.0267
12354SOL    HW238504   7.159   1.241   3.864  0.0135 -1.0737  0.7615
12355SOL     OW38505   2.951   0.354   8.805  0.4552  0.4617  0.6515
12355SOL    HW138506   2.932   0.385   8.716  2.5591 -0.5794 -0.2170
12355SOL    HW238507   2.868   0.366   8.852 -0.9042  0.4808 -1.5908
12356SOL     OW38508   1.121   2.644   6.434 -0.4567  0.0381  0.5305
12356SOL    HW138509   1.140   2.716   6.493 -1.4092 -0.3477  1.3381
12356SOL    HW238510   1.028   2.654   6.413 -0.5715 -0.8646  0.5459
12357SOL     OW38511   5.780   1.244   6.151 -0.0105 -0.4144  0.3015
12357SOL    HW138512   5.748   1.325   6.190 -0.9484 -0.8123  0.3946
12357SOL    HW238513   5.873   1.260   6.135  0.0972  0.2378  1.4537
12358SOL     OW38514   6.638   6.667   3.058  0.2515 -0.3107  0.2987
12358SOL    HW138515   6.643   6.763   3.058  1.5403 -0.3548  0.0721
12358SOL    HW238516   6.716   6.640   3.108 -0.3251 -1.2333  0.7151
12359SOL     OW38517   5.389   1.431   2.209 -0.5531 -0.4026  0.3586
12359SOL    HW138518   5.465   1.486   2.194 -1.9642  1.9621  1.3321
12359SOL    HW238519   5.405   1.389   2.293  0.0310 -0.5953  0.1555
12360SOL     OW38520   6.290   1.769   5.195  0.1241 -0.0998  0.3973
12360SOL    HW138521   6.384   1.787   5.187  0.0717 -0.3256 -0.9087
12360SOL    HW238522   6.253   1.799   5.112 -1.2539  1.6063  1.5657
12361SOL     OW38523   6.387   1.155  10.428 -0.2282  0.2342  0.1417
12361SOL    HW138524   6.430   1.151  10.342  0.4838 -0.7461  0.5341
12361SOL    HW238525   6.444   1.212  10.480  0.4535 -0.8002  0.5610
12362SOL     OW38526   7.256   0.411   7.486 -0.7075 -0.4885  0.4618
12362SOL    HW138527   7.281   0.385   7.574  0.9064 -0.1820  0.1276
12362SOL    HW238528   7.161   0.402   7.484 -0.5169 -4.2235  1.0423
12363SOL     OW38529   6.032   0.177   8.998 -0.2470  0.5756 -0.0743
12363SOL    HW138530   6.041   0.100   8.942 -0.4597 -0.1889  0.9214
12363SOL    HW238531   6.007   0.247   8.938  0.3203 -0.0337 -1.0519
12364SOL     OW38532   0.236   5.091   6.092  0.1805 -0.2465 -0.3588
12364SOL    HW138533   0.269   5.001   6.097 -0.5197 -0.6798 -2.4222
12364SOL    HW238534   0.273   5.134   6.169  1.2373 -2.0656  0.2270
12365SOL     OW38535   4.752   1.949   6.587 -0.2495  0.5293 -0.5327
12365SOL    HW138536   4.757   2.000   6.505  0.1271  1.5710  0.1119
12365SOL    HW238537   4.796   2.005   6.652  0.4410 -0.7633  0.1481
12366SOL     OW38538   0.536   7.043   1.988  0.2485  0.4456  0.1442
12366SOL    HW138539   0.614   7.013   2.034  1.0362  0.5638 -1.0771
12366SOL    HW238540   0.503   7.116   2.040  0.7623  0.1795  0.8469
12367SOL     OW38541   6.424   4.147   2.736  0.3552 -0.2554  0.3952
12367SOL    HW138542   6.483   4.190   2.799 -0.9625  2.3543 -0.0166
12367SOL    HW238543   6.360   4.214   2.714 -1.0094 -2.0582 -1.4761
12368SOL     OW38544   4.782   1.132   9.628  0.6596  0.0040  0.3164
12368SOL    HW138545   4.789   1.190   9.704  2.9927  0.1883  0.0140
12368SOL    HW238546   4.790   1.044   9.665  1.0989  0.0632  0.3700
12369SOL     OW38547   3.415   1.438  12.441  0.4183  0.2427  0.5340
12369SOL    HW138548   3.466   1.375  12.492  2.5513  1.2260 -0.2218
12369SOL    HW238549   3.354   1.385  12.391  1.9151 -1.2284  0.1591
12370SOL     OW38550   5.627   5.740   9.244  0.1433  0.3340 -0.2191
12370SOL    HW138551   5.599   5.791   9.168 -4.0205  0.6431  1.3014
12370SOL    HW238552   5.627   5.649   9.213  0.2953  0.5956 -1.0116
12371SOL     OW38553   4.685   0.221   9.700 -0.7222 -0.1358  0.1194
12371SOL    HW138554   4.687   0.244   9.607 -0.9724  1.8567  0.5518
12371SOL    HW238555   4.767   0.173   9.714 -0.3575  0.1171 -0.9851
12372SOL     OW38556   7.530   3.483   0.937 -0.2009 -0.1737 -0.1291
12372SOL    HW138557   7.586   3.470   0.860 -0.7739 -0.3298 -0.5267
12372SOL    HW238558   7.592   3.496   1.009  0.3513  0.5995 -0.7131
12373SOL     OW38559   0.590   2.372   3.327  0.4017 -0.3499  0.0377
12373SOL    HW138560   0.611   2.357   3.235  3.0008  0.1581  0.4912
12373SOL    HW238561   0.545   2.457   3.328 -1.5043 -1.2758 -0.9224
12374SOL     OW38562   3.808   7.605   5.177 -1.4659 -0.0894 -0.0706
12374SOL    HW138563   3.775   7.534   5.121 -1.2849  0.5645 -1.0335
12374SOL    HW238564   3.771   7.586   5.263  0.1185 -2.4191  0.2038
12375SOL     OW38565   5.178   7.050   1.516 -0.0445 -0.1110  0.5251
12375SOL    HW138566   5.089   7.055   1.551 -0.7906 -2.0280 -0.9297
12375SOL    HW238567   5.230   7.015   1.588 -0.3703  1.2871  1.4774
12376SOL     OW38568   6.997   3.661  12.161  0.0674  0.0547 -0.0165
12376SOL    HW138569   6.958   3.717  12.228  0.7852  1.1166 -0.4593
12376SOL    HW238570   6.990   3.573  12.197  0.5805  0.6053  1.5191
12377SOL     OW38571   7.689   1.610   1.970 -0.2998  0.1411 -0.0217
12377SOL    HW138572   7.699   1.542   2.036 -3.2478  0.0593  0.4385
12377SOL    HW238573   7.768   1.602   1.915  0.4625 -2.1654  1.2931
12378SOL     OW38574   1.983   6.952   0.423 -0.0302  0.3586  0.5489
12378SOL    HW138575   1.982   6.879   0.360 -1.1745 -0.6170  1.6351
12378SOL    HW238576   1.978   7.030   0.368 -2.3508 -0.4966 -0.6020
12379SOL     OW38577   0.063   0.610   3.795  0.1977 -0.1285 -0.2251
12379SOL    HW138578   0.039   0.688   3.844  1.2705  1.0659 -1.5188
12379SOL    HW238579  -0.001   0.605   3.724 -0.0185 -0.5862 -0.0044
12380SOL     OW38580   3.845   2.877   9.482 -0.1698  0.2636 -0.2041
12380SOL    HW138581   3.885   2.814   9.421 -0.6861  0.5796 -0.8811
12380SOL    HW238582   3.809   2.822   9.552  1.7326 -0.0049  0.6077
12381SOL     OW38583   5.203   1.187   3.099  0.0387 -0.4387  0.0272
12381SOL    HW138584   5.224   1.275   3.128 -1.7132 -0.4029  1.3421
12381SOL    HW238585   5.190   1.138   3.181  2.7985 -2.4693 -0.5675
12382SOL     OW38586   2.242   2.927   9.676  0.1634  0.3313 -0.5848
12382SOL    HW138587   2.198   3.004   9.711 -0.3667  1.1788 -2.9541
12382SOL    HW238588   2.207   2.917   9.588  0.4151 -2.4967 -0.4492
12383SOL     OW38589   3.935   5.134  11.563  0.1084 -0.2907 -0.4952
12383SOL    HW138590   3.851   5.103  11.596  0.1924 -0.7560 -0.6952
12383SOL    HW238591   3.963   5.065  11.502  1.4585 -1.0225  0.8872
12384SOL     OW38592   0.434   2.758   3.092  0.9394 -0.1944  0.6040
12384SOL    HW138593   0.448   2.725   3.181 -0.4587 -1.6758  0.3253
12384SOL    HW238594   0.374   2.831   3.103  0.7233 -0.4107  0.8728
12385SOL     OW38595   6.968   1.665   0.193  0.3907 -0.1255 -0.7630
12385SOL    HW138596   6.946   1.723   0.120  2.1267 -0.4586 -1.6140
12385SOL    HW238597   7.062   1.676   0.204  0.5606 -1.9019 -0.1646
12386SOL     OW38598   4.610   2.859   0.792  0.0572  0.0795 -0.3938
12386SOL    HW138599   4.538   2.921   0.775  0.5100  1.1469  1.3787
12386SOL    HW238600   4.577   2.776   0.758 -2.1728  0.4605  0.6154
12387SOL     OW38601   3.770   5.251   1.958 -0.5917 -0.4157 -0.0670
12387SOL    HW138602   3.771   5.313   1.885 -0.3644  0.3597  0.5774
12387SOL    HW238603   3.750   5.166   1.917 -2.5113  0.3155 -0.7673
12388SOL     OW38604   0.696   6.058   1.058  0.3245  0.0438  0.0762
12388SOL    HW138605   0.624   6.029   1.003  0.7087 -2.3177  0.6794
12388SOL    HW238606   0.672   6.029   1.146  2.4245 -1.8651  0.1331
12389SOL     OW38607   7.820   2.683  10.467 -0.4716  0.1353  0.0495
12389SOL    HW138608   7.880   2.726  10.405  0.5971  2.0813  2.2814
12389SOL    HW238609   7.759   2.752  10.493 -1.0664 -0.7183  0.9745
12390SOL     OW38610   4.747   5.521   6.245  0.9649 -0.2863 -0.5971
12390SOL    HW138611   4.830   5.566   6.260  0.8626  0.7314 -2.7371
12390SOL    HW238612   4.762   5.468   6.166 -0.9536  1.5233 -2.3014
12391SOL     OW38613   7.761   4.056   4.522 -0.2074 -0.3771  0.2293
12391SOL    HW138614   7.712   4.081   4.443  1.4052 -1.5018 -1.2049
12391SOL    HW238615   7.840   4.110   4.518  0.8343 -1.8911 -0.0450
12392SOL     OW38616   5.705   0.494   6.309  0.0314 -0.3960 -0.3144
12392SOL    HW138617   5.614   0.520   6.293  0.1651  0.7292  0.6144
12392SOL    HW238618   5.723   0.521   6.399  0.6107 -2.6633  0.3123
12393SOL     OW38619   2.973   7.659   5.834  0.1807 -0.0724  0.0388
12393SOL    HW138620   2.934   7.580   5.797  1.2312  0.2685 -1.8883
12393SOL    HW238621   2.912   7.685   5.904 -0.5298 -2.1727  0.2719
12394SOL     OW38622   0.265   4.637   3.389  0.3763  0.8145  0.2745
12394SOL    HW138623   0.223   4.719   3.362 -3.1477 -0.3536  1.6092
12394SOL    HW238624   0.197   4.571   3.376  2.6002 -1.6813  0.6677
12395SOL     OW38625   4.916   5.295  11.646 -0.7591 -0.5505 -0.9291
12395SOL    HW138626   4.915   5.316  11.553  0.2482  0.9622 -0.6426
12395SOL    HW238627   4.952   5.373  11.688  1.0012 -2.0152  0.4984
12396SOL     OW38628   5.198   4.315   1.281  0.2999  0.5007  0.4437
12396SOL    HW138629   5.195   4.358   1.196 -1.4871 -0.1107  0.1464
12396SOL    HW238630   5.178   4.384   1.345  1.0153  0.8274  0.3202
12397SOL     OW38631   2.896   3.902   1.835 -0.6461 -0.1996 -0.0717
12397SOL    HW138632   2.877   3.812   1.861 -1.0552 -0.8150 -2.2381
12397SOL    HW238633   2.909   3.949   1.917 -1.4808 -1.9948  1.1561
12398SOL     OW38634   2.776   1.313   4.622 -0.8740 -0.2119  0.1137
12398SOL    HW138635   2.728   1.233   4.643  1.6398 -1.7246  0.4160
12398SOL    HW238636   2.810   1.298   4.534 -1.8080  1.3056 -0.5509
12399SOL     OW38637   3.709   4.611   1.362  0.0807 -0.0082  0.4291
12399SOL    HW138638   3.792   4.656   1.371  0.9974 -1.2448 -1.2183
12399SOL    HW238639   3.652   4.673   1.316  1.1078 -0.2273 -1.2120
12400SOL     OW38640   6.374   3.518   4.114 -0.0803  0.3437 -0.0705
12400SOL    HW138641   6.387   3.609   4.088 -0.0697  0.4648  0.3447
12400SOL    HW238642   6.444   3.501   4.178 -0.4252  0.2198  0.2801
12401SOL     OW38643   1.992   3.838   3.413  0.5205  0.1298 -0.3380
12401SOL    HW138644   2.072   3.796   3.380 -0.5427 -2.5312  0.2149
12401SOL    HW238645   2.000   3.831   3.508  0.4769  1.6161 -0.2103
12402SOL     OW38646   7.954   1.684   6.194  0.2568  0.1291  0.3766
12402SOL    HW138647   7.979   1.595   6.171 -1.9166 -0.7545  1.2005
12402SOL    HW238648   8.036   1.734   6.187  1.3901 -1.7404 -0.8058
12403SOL     OW38649   0.004   2.795  10.283  0.1181  0.4192  0.1472
12403SOL    HW138650   0.097   2.775  10.298 -0.0868  0.5745  1.8010
12403SOL    HW238651  -0.022   2.735  10.213  0.9778 -1.0606  1.0396
12404SOL     OW38652   5.632   6.233   4.845 -0.2513 -0.3267  0.1637
12404SOL    HW138653   5.615   6.313   4.797 -0.7480 -0.6156 -0.1526
12404SOL    HW238654   5.553   6.180   4.833  0.1099 -0.9087  0.2714
12405SOL     OW38655   1.245   4.629   2.964 -0.5751 -0.1903  0.1039
12405SOL    HW138656   1.313   4.697   2.954 -1.4769  0.8367  0.7053
12405SOL    HW238657   1.287   4.561   3.017  0.4106 -0.2175 -0.6698
12406SOL     OW38658   2.332   6.250  11.424  0.3734  0.0674  0.1372
12406SOL    HW138659   2.337   6.315  11.494 -1.3233  0.6974 -0.2679
12406SOL    HW238660   2.249   6.204  11.439  0.4259 -0.4142 -0.9229
12407SOL     OW38661   2.384   1.782  11.630 -0.2587 -0.7081 -0.1335
12407SOL    HW138662   2.337   1.752  11.708  0.0116 -0.3117  0.1897
12407SOL    HW238663   2.382   1.878  11.637  0.0191 -0.6770 -0.4647
12408SOL     OW38664   4.109   1.651   0.730 -0.7971 -0.1815  0.0153
12408SOL    HW138665   4.188   1.697   0.702 -0.2313 -1.5159 -0.6621
12408SOL    HW238666   4.094   1.585   0.663 -1.3646 -1.2330  1.1324
12409SOL     OW38667   5.558   2.215   3.687  0.4828  0.1943  0.3056
12409SOL    HW138668   5.649   2.241   3.682  0.2603  1.4881  2.0700
12409SOL    HW238669   5.557   2.141   3.748  0.5037 -0.8239 -0.8878
12410SOL     OW38670   0.220   7.752   6.150 -0.0080  0.1835 -0.3133
12410SOL    HW138671   0.313   7.747   6.128  0.2914  1.0574  0.6533
12410SOL    HW238672   0.185   7.822   6.095 -0.0518 -0.0009 -0.5218
12411SOL     OW38673   4.774   6.685   1.121 -0.4306  0.0295 -0.0407
12411SOL    HW138674   4.793   6.638   1.201  1.0046  0.3310 -0.1926
12411SOL    HW238675   4.734   6.767   1.150 -0.2427 -0.0138  0.3421
12412SOL     OW38676   7.642   0.813   2.698  0.3496 -0.0835  0.1341
12412SOL    HW138677   7.551   0.785   2.703  0.4287 -0.2768  0.5783
12412SOL    HW238678   7.641   0.902   2.734  0.0349  0.6753 -1.6325
12413SOL     OW38679   5.098   3.382  11.209 -0.2321  0.4972 -0.0290
12413SOL    HW138680   5.034   3.399  11.279 -0.3825 -0.8598  0.2036
12413SOL    HW238681   5.181   3.369  11.255 -0.0454  0.9762 -0.2260
12414SOL     OW38682   0.867   1.934   7.523  0.6157 -0.2193 -0.1588
12414SOL    HW138683   0.805   1.899   7.587  1.0402 -0.5746  0.0621
12414SOL    HW238684   0.927   1.988   7.575 -0.2362  1.1627 -0.5329
12415SOL     OW38685   3.907   4.788  11.059  0.2683 -0.2573 -0.8580
12415SOL    HW138686   3.971   4.728  11.020 -0.6736 -1.8465 -0.0797
12415SOL    HW238687   3.839   4.795  10.992 -0.8071 -2.0898 -0.0292
12416SOL     OW38688   6.162   6.406   3.682  0.3331  0.2183  0.2001
12416SOL    HW138689   6.188   6.476   3.742 -0.1437  1.1145 -0.6254
12416SOL    HW238690   6.067   6.415   3.675  0.1365 -1.1258  0.8291
12417SOL     OW38691   2.048   3.526   6.588  0.3745 -0.2031 -0.0799
12417SOL    HW138692   1.994   3.452   6.615 -0.8545  0.6736 -0.0144
12417SOL    HW238693   2.006   3.602   6.629  0.5729  0.7221 -1.5093
12418SOL     OW38694   6.066   6.801   7.801  0.0261 -0.5663 -0.3192
12418SOL    HW138695   6.034   6.863   7.734  1.1629  0.1788 -0.1980
12418SOL    HW238696   6.063   6.716   7.758 -0.5799 -0.2862 -0.8468
12419SOL     OW38697   0.030   1.287   5.037 -0.1854 -0.2924  0.2062
12419SOL    HW138698   0.022   1.240   5.120 -0.8848  1.7731  1.3908
12419SOL    HW238699  -0.026   1.239   4.976 -1.3377 -0.6477  1.5072
12420SOL     OW38700   1.644   3.584   2.189  0.1773  0.0471  0.3285
12420SOL    HW138701   1.703   3.568   2.115 -0.3955  0.6115 -0.2571
12420SOL    HW238702   1.618   3.676   2.179 -0.2202  0.0108  1.0083
12421SOL     OW38703   0.728   3.744  10.584  0.3085  0.8428 -0.1298
12421SOL    HW138704   0.821   3.733  10.563 -0.1267  0.8494 -2.3675
12421SOL    HW238705   0.716   3.839  10.590  0.5915  0.8200  1.1006
12422SOL     OW38706   7.620   7.976   4.007  0.0526  0.4340 -0.0009
12422SOL    HW138707   7.657   8.001   3.922  0.7741 -0.5743 -0.0016
12422SOL    HW238708   7.525   7.983   3.995  0.1242 -0.2652 -1.0737
12423SOL     OW38709   4.529   1.039   6.756 -0.2896  0.0623  0.0481
12423SOL    HW138710   4.482   1.081   6.828  2.2599  0.7042  1.4293
12423SOL    HW238711   4.553   1.111   6.698  0.6672  0.0175  0.3757
12424SOL     OW38712   1.085   2.234  12.389 -0.4603  0.3415 -0.4778
12424SOL    HW138713   1.121   2.214  12.475 -2.3800 -0.9593  0.0987
12424SOL    HW238714   1.150   2.200  12.327 -0.0610 -0.7311  0.4904
12425SOL     OW38715   0.706   5.237  10.142 -0.2412 -0.5191  0.6444
12425SOL    HW138716   0.794   5.225  10.178  0.0817 -0.2046 -0.0294
12425SOL    HW238717   0.719   5.242  10.047 -1.2123 -2.5562  0.3618
12426SOL     OW38718   1.738   1.314   3.963 -0.2571 -0.4700 -0.2741
12426SOL    HW138719   1.690   1.263   4.028  1.1697 -1.0857  0.3391
12426SOL    HW238720   1.778   1.249   3.905  0.5472 -0.0137 -0.2499
12427SOL     OW38721   6.687   3.346   3.455  0.5527  0.0224 -0.3652
12427SOL    HW138722   6.641   3.427   3.430  0.3382  0.4678  1.3074
12427SOL    HW238723   6.626   3.276   3.432 -1.4412  0.6345  2.4697
12428SOL     OW38724   3.979   1.379   7.426 -0.1459  0.0421 -0.2519
12428SOL    HW138725   4.060   1.344   7.463  0.7009  0.6112 -1.4967
12428SOL    HW238726   3.912   1.315   7.450  0.7339 -0.6321  0.4778
12429SOL     OW38727   5.697   1.775   8.396 -0.1309 -0.2336  0.5709
12429SOL    HW138728   5.697   1.679   8.395 -0.1361 -0.2338 -0.7188
12429SOL    HW238729   5.608   1.799   8.420 -0.2847 -0.5574  0.3265
12430SOL     OW38730   0.309   0.639  10.316 -0.6606  0.0611 -0.0618
12430SOL    HW138731   0.377   0.660  10.253 -2.2202 -0.3425 -1.9639
12430SOL    HW238732   0.350   0.576  10.376  0.1137 -1.7387 -2.3464
12431SOL     OW38733   5.419   6.656  10.535 -0.3438 -0.0626  0.4959
12431SOL    HW138734   5.484   6.590  10.513  0.3837  0.4780  0.9635
12431SOL    HW238735   5.441   6.684  10.623 -1.5903 -0.2888  0.8997
12432SOL     OW38736   6.593   7.003   5.131  0.3018  0.0659 -0.1382
12432SOL    HW138737   6.505   7.010   5.167  0.3688  0.1650  0.0109
12432SOL    HW238738   6.582   6.958   5.047  0.0522  0.4925 -0.3399
12433SOL     OW38739   2.345   0.395  11.133 -0.2670  0.1753  0.4581
12433SOL    HW138740   2.300   0.444  11.202 -1.3465 -1.6413  1.1025
12433SOL    HW238741   2.391   0.325  11.178 -0.3350 -0.5616 -0.5810
12434SOL     OW38742   1.052   5.111   5.606 -0.3156  0.1928 -0.1283
12434SOL    HW138743   0.985   5.058   5.649 -0.4143 -0.4073 -1.0012
12434SOL    HW238744   1.099   5.049   5.550 -1.0233  1.1572 -1.8783
12435SOL     OW38745   6.356   0.956   2.264 -0.0255 -0.1789 -0.7211
12435SOL    HW138746   6.273   0.910   2.276 -0.4842  0.5534 -1.0194
12435SOL    HW238747   6.421   0.900   2.307 -0.7215 -0.5880 -0.1825
12436SOL     OW38748   5.510   1.561   9.485  0.2362 -0.0456  0.1511
12436SOL    HW138749   5.477   1.583   9.572 -2.3782 -0.8697 -0.5439
12436SOL    HW238750   5.500   1.641   9.434  0.6953  0.1184  0.3190
12437SOL     OW38751   4.368   7.006   9.110 -0.5727 -0.0410 -0.0317
12437SOL    HW138752   4.458   6.984   9.089  0.0231  0.6872  1.5889
12437SOL    HW238753   4.324   7.013   9.026  1.4482  2.0266 -1.0094
12438SOL     OW38754   3.221   2.424   7.023  0.9943  0.0751  0.0725
12438SOL    HW138755   3.155   2.381   7.078 -0.4615 -1.8507 -2.9226
12438SOL    HW238756   3.305   2.395   7.060  0.0751 -3.6352 -0.3302
12439SOL     OW38757   0.427   3.713   8.325 -0.4276 -0.0302  0.2190
12439SOL    HW138758   0.499   3.653   8.346 -0.0855  0.4778  0.5182
12439SOL    HW238759   0.442   3.737   8.234 -0.8144 -0.7332 -0.0378
12440SOL     OW38760   1.231   6.494   1.159  0.3037 -0.3069  0.2028
12440SOL    HW138761   1.179   6.574   1.159 -0.2700 -0.6420 -1.3325
12440SOL    HW238762   1.319   6.522   1.185 -0.1354  0.6298  0.7119
12441SOL     OW38763   5.394   0.656   1.525 -0.2760 -0.1039 -0.0354
12441SOL    HW138764   5.421   0.716   1.595 -2.0074  0.7034 -0.0284
12441SOL    HW238765   5.458   0.584   1.530  0.6551  0.7685  1.2398
12442SOL     OW38766   1.698   0.540  11.393 -0.0760 -0.4410  0.4165
12442SOL    HW138767   1.666   0.511  11.478  0.3380  0.1285  0.7660
12442SOL    HW238768   1.653   0.483  11.330 -2.0401  0.5338  0.8670
12443SOL     OW38769   5.984   3.478  10.688  0.5130 -0.3332  0.2013
12443SOL    HW138770   6.014   3.388  10.677  2.1330  0.1084  0.6926
12443SOL    HW238771   5.903   3.483  10.638  1.1032 -1.7010 -0.9510
12444SOL     OW38772   1.995   3.165   1.870  0.2911  1.0109 -0.1574
12444SOL    HW138773   2.070   3.176   1.929 -1.7526  0.6608  2.6952
12444SOL    HW238774   1.978   3.253   1.836  0.3731  1.6339  1.3248
12445SOL     OW38775   0.269   3.369   9.561 -0.0717 -0.4915  0.8571
12445SOL    HW138776   0.283   3.364   9.466  0.0930 -0.3588  0.8737
12445SOL    HW238777   0.348   3.412   9.595 -0.8567  0.9924  0.8595
12446SOL     OW38778   1.232   1.625   2.057 -0.5151 -0.2107 -0.3891
12446SOL    HW138779   1.316   1.579   2.057  0.0804  0.8231  0.5476
12446SOL    HW238780   1.230   1.671   2.141 -1.7636  0.2573 -0.6532
12447SOL     OW38781   1.361   3.608   6.469  0.2342 -0.0623  0.3521
12447SOL    HW138782   1.316   3.537   6.516 -1.2886  0.5552 -0.1045
12447SOL    HW238783   1.386   3.568   6.386 -1.3344  0.0976 -0.2401
12448SOL     OW38784   2.969   6.987   9.037 -0.2775  0.5368 -0.6935
12448SOL    HW138785   2.916   6.947   9.106  4.0631 -0.1670  2.7190
12448SOL    HW238786   3.007   6.913   8.990  0.5366  0.8651 -0.5662
12449SOL     OW38787   6.596   1.183   4.771  0.4466  0.1920 -0.2771
12449SOL    HW138788   6.606   1.278   4.776  1.0317  0.1288 -0.0767
12449SOL    HW238789   6.609   1.162   4.678  1.6517  0.1881 -0.1318
12450SOL     OW38790   0.035   6.956  10.594 -0.1247  0.3125 -0.0070
12450SOL    HW138791   0.030   7.048  10.621 -0.2079 -0.1626  1.7242
12450SOL    HW238792   0.128   6.935  10.597 -0.0924  0.3701 -0.5396
12451SOL     OW38793   7.065   3.070   4.366 -0.0176  0.6267 -0.4194
12451SOL    HW138794   7.089   3.001   4.428 -1.5750  1.6277  1.4062
12451SOL    HW238795   7.148   3.110   4.341  0.8864 -1.5986 -1.2148
12452SOL     OW38796   5.371   0.421   2.870 -0.0405 -0.1485 -0.1694
12452SOL    HW138797   5.387   0.363   2.795 -0.0015  0.0056 -0.2804
12452SOL    HW238798   5.366   0.508   2.832 -1.3339 -0.1953 -0.1738
12453SOL     OW38799   6.151   0.788  11.052  0.5297  0.3510 -0.9126
12453SOL    HW138800   6.162   0.695  11.033  0.9450 -0.1568  1.4825
12453SOL    HW238801   6.059   0.796  11.080  0.3575  0.7601 -1.5802
12454SOL     OW38802   3.225   2.775  10.038 -0.2603  0.0047 -0.2499
12454SOL    HW138803   3.143   2.812  10.006 -0.4796  0.2429  0.5441
12454SOL    HW238804   3.266   2.846  10.087  1.0512  0.2850 -1.7002
12455SOL     OW38805   1.911   4.819  10.520  0.2981  0.0856 -0.8422
12455SOL    HW138806   1.835   4.772  10.555 -0.3911  1.1088 -0.9088
12455SOL    HW238807   1.921   4.894  10.579  1.1486  0.0520 -0.9441
12456SOL     OW38808   5.438   0.542   6.220 -0.0410 -0.1530 -0.2730
12456SOL    HW138809   5.476   0.601   6.155  2.3572 -1.6261 -0.2822
12456SOL    HW238810   5.432   0.596   6.300  0.7591  0.5254 -0.6575
12457SOL     OW38811   4.967   1.596  11.199 -0.2516  0.8607 -0.2007
12457SOL    HW138812   4.893   1.646  11.165 -0.4357  0.2651 -0.7022
12457SOL    HW238813   4.971   1.619  11.292  0.2128  2.4660 -0.5883
12458SOL     OW38814   1.578   3.999   7.641  0.3745  0.2237 -0.0572
12458SOL    HW138815   1.495   3.955   7.621  0.7522 -0.3755 -0.3458
12458SOL    HW238816   1.561   4.091   7.626 -0.3999  0.1621  0.4210
12459SOL     OW38817   0.022   0.170   2.516 -0.2148 -0.0135  0.0167
12459SOL    HW138818   0.093   0.214   2.563 -0.3425  3.5429 -2.7299
12459SOL    HW238819   0.053   0.080   2.505  2.5220  0.6405  1.4161
12460SOL     OW38820   6.927   0.467   3.256 -0.2000 -0.0240 -0.8120
12460SOL    HW138821   6.967   0.494   3.173 -1.0178  1.7135 -0.6618
12460SOL    HW238822   6.833   0.474   3.241 -0.3851 -0.5880 -0.0017
12461SOL     OW38823   2.405   4.529  11.866 -0.7986  0.3575  0.1461
12461SOL    HW138824   2.395   4.478  11.785  0.9755  0.7886 -0.3831
12461SOL    HW238825   2.324   4.513  11.914 -0.8358 -1.9723 -0.5567
12462SOL     OW38826   0.098   0.588   8.274 -0.6856  0.1255 -0.0002
12462SOL    HW138827   0.088   0.681   8.253  3.9200  0.7107 -0.4565
12462SOL    HW238828   0.078   0.542   8.193 -1.0467  0.8395 -0.3215
12463SOL     OW38829   7.235   1.080   6.688  0.3527  0.1011  0.3962
12463SOL    HW138830   7.167   1.123   6.740 -1.9651  0.0564 -2.3391
12463SOL    HW238831   7.193   1.064   6.603  2.8038 -2.8232 -0.4297
12464SOL     OW38832   1.281   5.710   7.607 -0.0732 -0.4931 -0.0941
12464SOL    HW138833   1.193   5.673   7.601 -0.1496 -0.7253  1.7518
12464SOL    HW238834   1.300   5.711   7.701  1.5576  0.3618 -0.3940
12465SOL     OW38835   6.620   5.791   5.720 -0.4822 -0.1496 -0.2089
12465SOL    HW138836   6.630   5.879   5.685  0.6361  0.1523  0.7944
12465SOL    HW238837   6.528   5.770   5.707 -0.5146  0.6891 -1.5388
12466SOL     OW38838   3.536   6.362   2.185  0.5012 -0.1339  0.1889
12466SOL    HW138839   3.592   6.286   2.167  0.3374 -1.8041  5.1988
12466SOL    HW238840   3.454   6.343   2.139  1.2612 -1.7702 -0.5789
12467SOL     OW38841   1.876   7.380   0.570  0.2995  0.0930 -0.0517
12467SOL    HW138842   1.835   7.309   0.619 -0.8743  0.3381 -0.6355
12467SOL    HW238843   1.969   7.357   0.567  0.1189 -0.7897  0.7989
12468SOL     OW38844   7.641   6.434   3.514 -0.3469 -0.4080 -0.1858
12468SOL    HW138845   7.683   6.354   3.481  0.2677  0.0951 -0.6445
12468SOL    HW238846   7.549   6.425   3.488 -0.2996 -0.9956 -0.1766
12469SOL     OW38847   3.076   4.977   1.318 -0.1282 -0.0971  0.0724
12469SOL    HW138848   3.091   4.902   1.261  0.8237 -0.1613  0.3917
12469SOL    HW238849   3.087   5.053   1.262 -0.2395 -0.1741 -0.0554
12470SOL     OW38850   2.923   1.889   4.125  0.3186 -0.2488 -0.1040
12470SOL    HW138851   2.904   1.813   4.180 -1.0043  0.0130 -0.1673
12470SOL    HW238852   2.862   1.956   4.156 -0.6785 -0.1912 -2.0703
12471SOL     OW38853   2.295   0.682   1.102  0.9831  0.3607  0.2391
12471SOL    HW138854   2.389   0.697   1.113  1.3144 -0.2718 -1.4618
12471SOL    HW238855   2.274   0.610   1.161  1.7847 -0.1302 -0.0600
12472SOL     OW38856   4.881   4.234   5.832  0.3170 -0.1142  0.2163
12472SOL    HW138857   4.891   4.230   5.927 -0.3722 -2.0363  0.2467
12472SOL    HW238858   4.816   4.304   5.818  1.4326  1.1383  1.0283
12473SOL     OW38859   6.144   6.817   5.987  0.0463 -0.1996  0.3485
12473SOL    HW138860   6.082   6.831   5.915 -0.0727 -3.8769 -0.4711
12473SOL    HW238861   6.222   6.866   5.961 -0.7857  0.3983 -1.1709
12474SOL     OW38862   5.950   4.449  11.016 -0.3508 -0.1729  0.1567
12474SOL    HW138863   5.950   4.399  10.934  0.1964 -0.5645  0.3862
12474SOL    HW238864   5.860   4.476  11.027 -1.0478 -2.5206  0.8609
12475SOL     OW38865   3.703   3.917  12.312 -0.2368  0.2947 -0.0396
12475SOL    HW138866   3.662   3.911  12.398  0.3339  2.3089  0.4418
12475SOL    HW238867   3.644   3.972  12.261 -1.2582 -1.9698 -1.4467
12476SOL     OW38868   5.435   0.903   8.569  0.0309  0.2892 -0.7986
12476SOL    HW138869   5.422   0.888   8.662  0.7109  1.0073 -0.5713
12476SOL    HW238870   5.496   0.835   8.542 -0.0174  0.1981 -0.6823
12477SOL     OW38871   7.961   5.883   2.187  0.0121 -1.0086  0.4869
12477SOL    HW138872   7.871   5.867   2.158  0.5840  0.4789 -2.6222
12477SOL    HW238873   8.010   5.808   2.153  0.2380 -0.7514  0.2358
12478SOL     OW38874   2.416   3.719   9.972  0.2654 -0.2719  0.3038
12478SOL    HW138875   2.416   3.775   9.895 -1.3921  1.5669  1.5541
12478SOL    HW238876   2.501   3.735  10.014  0.6636 -0.3580 -0.4433
12479SOL     OW38877   2.203   1.933   9.839 -0.3355 -0.1749  0.3712
12479SOL    HW138878   2.121   1.901   9.801  0.7528 -2.3310 -0.3434
12479SOL    HW238879   2.247   1.977   9.766 -0.6102  0.5153  0.6153
12480SOL     OW38880   3.887   4.712   3.345 -0.3334 -0.4687  0.1121
12480SOL    HW138881   3.825   4.694   3.415 -0.2751  1.5251  0.7218
12480SOL    HW238882   3.966   4.743   3.389  0.1362 -0.3532 -0.7856
12481SOL     OW38883   7.097   5.437   3.536 -0.1218  0.0624 -0.1047
12481SOL    HW138884   7.058   5.516   3.499 -0.8457 -0.0312  0.4231
12481SOL    HW238885   7.024   5.392   3.579  0.2343 -0.9994 -0.5753
12482SOL     OW38886   0.413   2.457   8.421 -0.3372 -0.1915 -0.1700
12482SOL    HW138887   0.373   2.538   8.455 -0.1253  0.2297 -0.9077
12482SOL    HW238888   0.414   2.469   8.326  1.7483 -0.0879 -0.1809
12483SOL     OW38889   2.760   2.651   8.545  0.2330  0.2980  0.3878
12483SOL    HW138890   2.852   2.655   8.571  0.2579  0.4259  0.2802
12483SOL    HW238891   2.754   2.573   8.490  0.7207  1.4352 -1.3458
12484SOL     OW38892   4.328   5.419   8.307  0.7319 -0.5515 -0.8110
12484SOL    HW138893   4.256   5.466   8.264 -1.3651 -0.1794  2.6781
12484SOL    HW238894   4.355   5.478   8.378  0.3554 -3.0762  1.5959
12485SOL     OW38895   5.945   0.662   2.067 -0.1223 -0.1287  0.3711
12485SOL    HW138896   5.927   0.750   2.031 -1.0833  0.2678  1.7456
12485SOL    HW238897   6.040   0.655   2.065 -0.0487  0.7639 -0.1786
12486SOL     OW38898   7.350   7.261   6.837 -0.5188  0.3494 -0.3629
12486SOL    HW138899   7.264   7.268   6.794 -1.1517  2.5045  1.1347
12486SOL    HW238900   7.405   7.325   6.792  0.0786 -0.3939 -0.7190
12487SOL     OW38901   2.601   7.725   3.522 -0.4022  0.0860  0.2133
12487SOL    HW138902   2.540   7.652   3.516  0.2658 -0.5958  1.4373
12487SOL    HW238903   2.688   7.685   3.525 -0.0887  0.8197  2.3314
12488SOL     OW38904   1.957   4.914   8.139 -0.7728  0.2351 -0.0235
12488SOL    HW138905   1.947   4.902   8.044 -0.9408 -1.6044  0.1773
12488SOL    HW238906   1.868   4.931   8.170 -0.7903  0.3843 -0.1571
12489SOL     OW38907   2.670   4.629   2.662  0.0572 -0.4981  0.4099
12489SOL    HW138908   2.750   4.679   2.644 -0.2825 -0.0911 -0.0068
12489SOL    HW238909   2.661   4.631   2.757  2.1283 -3.0644  0.7615
12490SOL     OW38910   5.491   2.791   1.741  0.3411 -0.1361  0.1423
12490SOL    HW138911   5.465   2.838   1.820  1.4681  0.8117 -0.0163
12490SOL    HW238912   5.585   2.775   1.753  0.5082 -0.0401 -0.9603
12491SOL     OW38913   5.719   6.079   3.860 -0.3015  0.3436 -0.1451
12491SOL    HW138914   5.640   6.038   3.897  0.2790 -0.3793  0.3220
12491SOL    HW238915   5.792   6.034   3.904  0.5030 -1.6365 -3.1669
12492SOL     OW38916   2.548   5.013   7.371  0.4345  0.1454 -0.5811
12492SOL    HW138917   2.627   5.064   7.355 -0.0796  1.1740  0.0569
12492SOL    HW238918   2.578   4.922   7.370  1.7427  0.5295  0.2101
12493SOL     OW38919   1.500   6.011   6.350  0.2241  0.5666  0.2472
12493SOL    HW138920   1.432   5.983   6.411 -0.8356  0.1697 -1.0760
12493SOL    HW238921   1.545   6.083   6.395 -0.1092 -0.1187  1.7351
12494SOL     OW38922   1.005   7.032   0.930  0.6428 -0.2849 -0.6783
12494SOL    HW138923   0.960   7.009   1.011  2.3156  0.3051  0.4883
12494SOL    HW238924   0.950   7.098   0.889 -1.2758 -2.0692 -1.1258
12495SOL     OW38925   2.888   0.922   1.286 -0.3706  0.1014 -0.3642
12495SOL    HW138926   2.826   0.857   1.321  0.9796 -0.5818  0.8739
12495SOL    HW238927   2.868   1.002   1.334  0.7857 -0.5626  1.3095
12496SOL     OW38928   1.639   6.138   9.205 -0.3155 -0.2422  0.3683
12496SOL    HW138929   1.653   6.171   9.116 -0.6518 -1.8194 -0.3091
12496SOL    HW238930   1.545   6.147   9.220 -0.3046 -0.2679  0.4535
12497SOL     OW38931   0.430   2.810   2.664  0.1551 -0.3386 -0.3803
12497SOL    HW138932   0.509   2.797   2.717  1.3765 -0.8559 -2.2438
12497SOL    HW238933   0.393   2.722   2.654 -0.5521 -0.1329  0.2609
12498SOL     OW38934   7.412   0.587  11.903 -0.8253  0.6229 -0.4857
12498SOL    HW138935   7.456   0.537  11.972 -1.0850 -2.3793 -2.3405
12498SOL    HW238936   7.483   0.630  11.856 -0.3198 -0.1024 -0.4065
12499SOL     OW38937   2.329   7.830   5.423  0.1188 -0.2887  0.1462
12499SOL    HW138938   2.260   7.770   5.394  0.6319 -1.3070  1.0169
12499SOL    HW238939   2.374   7.854   5.342 -0.3712 -0.7110 -0.2645
12500SOL     OW38940   6.325   6.448   5.341 -0.2335  0.5080  0.0594
12500SOL    HW138941   6.352   6.539   5.353  1.0104  0.2137 -0.3327
12500SOL    HW238942   6.237   6.444   5.378  0.3745  1.4545  1.7396
12501SOL     OW38943   0.944   5.531   1.303  0.4691 -0.3503  0.1658
12501SOL    HW138944   0.896   5.464   1.255  0.8491 -0.3314 -0.2493
12501SOL    HW238945   0.885   5.557   1.374  0.2211 -0.9434  0.1795
12502SOL     OW38946   2.853   0.851   3.780 -0.0094 -0.7411 -1.1815
12502SOL    HW138947   2.762   0.853   3.751 -0.5959  0.8269  0.5607
12502SOL    HW238948   2.851   0.804   3.863  0.7735 -0.6725 -1.1169
12503SOL     OW38949   6.917   3.158  10.741  0.0939 -0.0229 -0.1194
12503SOL    HW138950   6.868   3.179  10.662  1.1749  1.4619 -0.4567
12503SOL    HW238951   7.002   3.201  10.728  0.7828 -0.8953  1.2572
12504SOL     OW38952   4.055   2.121  11.902  0.4570  0.0509 -0.0839
12504SOL    HW138953   4.137   2.122  11.852  1.6828 -1.2613  1.8047
12504SOL    HW238954   4.078   2.163  11.985 -0.6746 -0.7176  0.6295
12505SOL     OW38955   0.373   3.499   7.119 -0.6383  0.1539  0.4470
12505SOL    HW138956   0.314   3.512   7.193  0.7758  2.5205  1.2862
12505SOL    HW238957   0.325   3.532   7.043 -1.3303 -0.3641  0.6543
12506SOL     OW38958   4.447   7.942  10.646 -0.4360 -0.1728  0.5883
12506SOL    HW138959   4.354   7.952  10.668 -0.7244 -1.8642  0.2727
12506SOL    HW238960   4.491   7.939  10.731 -0.6642  0.5240  0.7425
12507SOL     OW38961   2.653   3.385   7.363  0.1981  0.5540  0.5864
12507SOL    HW138962   2.600   3.420   7.434 -0.5515 -0.5121  0.5789
12507SOL    HW238963   2.661   3.458   7.301 -1.3244  0.7307  0.5548
12508SOL     OW38964   0.306   5.368  12.198 -0.2658 -0.2917 -0.0077
12508SOL    HW138965   0.291   5.343  12.289  0.5750 -0.8017  0.0032
12508SOL    HW238966   0.380   5.315  12.171 -0.7828 -0.4683 -1.1346
12509SOL     OW38967   7.809   3.423   6.248  0.2534  0.1157 -0.3358
12509SOL    HW138968   7.887   3.373   6.224 -0.4265 -1.5149  0.6357
12509SOL    HW238969   7.772   3.450   6.164  1.5050  0.3778 -0.8318
12510SOL     OW38970   1.161   4.987   5.860 -0.0702  0.2698 -0.0516
12510SOL    HW138971   1.168   4.998   5.955  1.5067  0.0596 -0.1150
12510SOL    HW238972   1.195   5.069   5.824 -0.5170  0.2872 -0.4535
12511SOL     OW38973   3.932   6.773  10.870 -0.0225  0.7914  0.0370
12511SOL    HW138974   3.903   6.852  10.824 -1.0542  0.1734 -0.4132
12511SOL    HW238975   3.890   6.701  10.822  0.6668 -0.0085  0.6143
12512SOL     OW38976   6.966   0.633   5.349 -0.3458 -0.3802  0.9670
12512SOL    HW138977   6.898   0.660   5.287 -2.0003  0.3257  2.9773
12512SOL    HW238978   7.032   0.702   5.342 -0.2780 -0.5422 -0.3005
12513SOL     OW38979   5.664   6.257   5.132  0.2045 -0.5534 -0.0200
12513SOL    HW138980   5.752   6.236   5.162  1.4151  1.5170 -1.7657
12513SOL    HW238981   5.658   6.217   5.045 -0.8266 -1.2023  0.3390
12514SOL     OW38982   2.498   6.608   2.915 -0.5437  0.0927 -0.8681
12514SOL    HW138983   2.408   6.587   2.892 -0.1352 -0.6432 -1.8578
12514SOL    HW238984   2.507   6.701   2.897 -1.2747  0.3129 -0.1506
12515SOL     OW38985   6.951   7.707   2.905 -0.0988  0.3559  0.1963
12515SOL    HW138986   7.000   7.634   2.867 -0.0584  0.0294  0.8633
12515SOL    HW238987   7.013   7.780   2.903 -0.3351  0.5426 -1.0159
12516SOL     OW38988   1.198   5.983   4.623 -0.2391 -0.3928 -0.1267
12516SOL    HW138989   1.147   5.984   4.704  0.4374 -0.1785  0.2995
12516SOL    HW238990   1.211   6.075   4.601  0.7003 -0.4270  0.2424
12517SOL     OW38991   7.696   4.059  12.114  0.0064  0.3671 -0.1667
12517SOL    HW138992   7.676   3.970  12.143  1.8207 -0.1216 -0.2821
12517SOL    HW238993   7.632   4.114  12.159 -1.4910 -1.0088 -0.4822
12518SOL     OW38994   0.090   2.044   4.804 -0.0350  0.1059  0.1804
12518SOL    HW138995   0.047   2.014   4.884  0.7286 -1.5978 -0.0048
12518SOL    HW238996   0.048   1.995   4.734  1.1754 -0.4832 -0.1614
12519SOL     OW38997   0.859   0.764   7.005 -0.1827 -0.1019  0.3195
12519SOL    HW138998   0.945   0.773   7.046  0.0262  1.5852 -0.4074
12519SOL    HW238999   0.846   0.670   6.998  0.1920 -0.4909  3.3337
12520SOL     OW39000   3.503   0.973   7.852  0.4464 -0.1722 -0.4680
12520SOL    HW139001   3.472   0.962   7.942 -1.4237 -1.5559 -1.2292
12520SOL    HW239002   3.598   0.971   7.860  0.3552  0.4571  1.5474
12521SOL     OW39003   7.164   4.030   6.923  0.2103  0.3097 -0.0688
12521SOL    HW139004   7.155   4.070   7.010  2.7460 -1.6005  1.2016
12521SOL    HW239005   7.232   4.081   6.880  1.6355 -0.9577  0.5843
12522SOL     OW39006   4.426   6.067   8.343 -0.1672 -0.5182 -0.4816
12522SOL    HW139007   4.519   6.044   8.343 -0.3584 -1.3853  0.3449
12522SOL    HW239008   4.422   6.147   8.394  0.0920 -0.6723 -0.2120
12523SOL     OW39009   5.897   2.824  10.623  0.0978  0.3954  0.2947
12523SOL    HW139010   5.897   2.862  10.711 -0.5366 -0.6497  0.7637
12523SOL    HW239011   5.975   2.769  10.620  0.7273  1.2800 -0.2029
12524SOL     OW39012   5.433   3.102   2.549  0.6806 -0.0999  0.4642
12524SOL    HW139013   5.367   3.137   2.609  0.9285  3.6647 -1.1713
12524SOL    HW239014   5.510   3.157   2.562  1.0412  0.2960 -2.5689
12525SOL     OW39015   5.090   3.744  10.118  0.5189  0.4043  0.3676
12525SOL    HW139016   5.150   3.671  10.107  0.0664  0.2514 -1.4501
12525SOL    HW239017   5.011   3.704  10.154  0.6357  0.1707  0.3684
12526SOL     OW39018   1.303   5.910   5.982 -0.1996 -0.2854 -0.7527
12526SOL    HW139019   1.245   5.850   6.028  0.9250 -0.6285  0.2847
12526SOL    HW239020   1.288   5.995   6.024  0.0441 -0.3739 -0.4842
12527SOL     OW39021   5.896   0.026   9.523  0.1741  0.1750 -0.6394
12527SOL    HW139022   5.947  -0.048   9.556 -0.3188  0.9298  1.9766
12527SOL    HW239023   5.960   0.082   9.479  1.1975 -0.0856  0.4728
12528SOL     OW39024   5.013   1.007  10.568  0.0091 -0.5109  0.1582
12528SOL    HW139025   5.035   0.999  10.661 -1.0112  1.2245  0.6132
12528SOL    HW239026   4.929   1.054  10.568  0.6894  0.8163 -1.6723
12529SOL     OW39027   6.015   7.751  11.102  0.1679  0.2975 -0.3032
12529SOL    HW139028   5.970   7.786  11.178  0.5443 -0.7797  0.4466
12529SOL    HW239029   6.106   7.777  11.113  0.5445 -1.2394  0.5106
12530SOL     OW39030   4.825   6.135   2.055 -0.2433 -0.2020 -0.0515
12530SOL    HW139031   4.911   6.094   2.041 -0.4281 -0.5680 -0.1173
12530SOL    HW239032   4.794   6.157   1.968 -0.2750 -0.1961 -0.0387
12531SOL     OW39033   4.546   6.562   2.711 -0.4649 -0.1870 -0.0450
12531SOL    HW139034   4.589   6.634   2.665 -0.2616  1.3493  2.3790
12531SOL    HW239035   4.618   6.505   2.738 -0.3842  0.0275  0.1927
12532SOL     OW39036   1.702   1.663   1.759  0.0559  0.3851 -0.6338
12532SOL    HW139037   1.771   1.618   1.809 -0.4879  0.3724  0.1160
12532SOL    HW239038   1.637   1.595   1.743 -1.5959  1.2089  1.9843
12533SOL     OW39039   1.828   7.279   3.706  0.4847 -0.9499 -0.1778
12533SOL    HW139040   1.888   7.215   3.668  1.7235  0.1294 -0.1004
12533SOL    HW239041   1.762   7.226   3.751  1.7432 -2.1855  0.2950
12534SOL     OW39042   5.726   5.224   4.806  0.2453  0.1974  0.3267
12534SOL    HW139043   5.810   5.243   4.764  0.0569 -1.1906 -0.7810
12534SOL    HW239044   5.737   5.254   4.896  2.1195 -0.3906  0.3536
12535SOL     OW39045   4.688   6.360   9.062  0.2771 -0.4999 -0.0082
12535SOL    HW139046   4.758   6.318   9.112  0.0664 -0.3612  0.4133
12535SOL    HW239047   4.648   6.289   9.011  0.2518 -0.7182  0.3123
12536SOL     OW39048   5.666   5.239  11.013  0.6042 -0.2370  0.3197
12536SOL    HW139049   5.607   5.219  10.941  1.2660 -0.2693 -0.2226
12536SOL    HW239050   5.717   5.159  11.026  1.1564  0.0901  0.1753
12537SOL     OW39051   6.602   4.521   7.281  1.0448  0.3385  0.3643
12537SOL    HW139052   6.636   4.497   7.367  0.6470  2.1835  1.0787
12537SOL    HW239053   6.513   4.551   7.298  0.5629 -0.3351 -0.8716
12538SOL     OW39054   5.733   3.323   0.535 -0.0559 -0.3860 -0.1058
12538SOL    HW139055   5.641   3.296   0.541 -0.5670  0.6388 -2.2872
12538SOL    HW239056   5.772   3.263   0.473  0.4595 -0.1262 -0.0377
12539SOL     OW39057   5.026   2.436   0.008  0.5024 -0.2200  0.0311
12539SOL    HW139058   5.083   2.359   0.010  0.7325 -0.0419  0.3646
12539SOL    HW239059   5.079   2.505   0.047  1.0767  0.6309 -2.1150
12540SOL     OW39060   4.099   6.013   2.458  0.4246 -0.0559  0.0292
12540SOL    HW139061   4.080   6.104   2.480 -0.5788 -0.2106 -0.1163
12540SOL    HW239062   4.034   5.962   2.508 -0.5196 -0.5365 -1.5844
12541SOL     OW39063   7.882   7.364   0.976  0.0726  0.0664 -0.4934
12541SOL    HW139064   7.973   7.335   0.982 -0.2720 -0.8056  1.4616
12541SOL    HW239065   7.887   7.458   0.960  1.3249  0.0782 -0.1198
12542SOL     OW39066   0.168   2.194   6.476 -0.0601 -0.4066  0.1872
12542SOL    HW139067   0.173   2.287   6.454 -2.8930 -0.8136 -2.8859
12542SOL    HW239068   0.132   2.192   6.565  0.9443  1.3520  0.6909
12543SOL     OW39069   0.484   5.812   2.003  0.2831  0.1675  0.1762
12543SOL    HW139070   0.488   5.812   2.099 -0.6323 -0.8327  0.2214
12543SOL    HW239071   0.458   5.901   1.980  0.7873  0.4926  0.8336
12544SOL     OW39072   0.808   4.468   5.622 -0.2214 -0.4425 -0.5685
12544SOL    HW139073   0.797   4.380   5.587  0.4885 -0.3587 -1.0060
12544SOL    HW239074   0.721   4.491   5.656  0.1901 -2.4145  2.1718
12545SOL     OW39075   2.929   1.851   4.712 -0.3430  0.0455  0.3155
12545SOL    HW139076   2.934   1.840   4.807 -0.6492  3.5061  0.8585
12545SOL    HW239077   2.836   1.840   4.692 -0.2107 -1.1903  0.2797
12546SOL     OW39078   5.310   2.752  12.136  0.4198  0.3772 -0.1777
12546SOL    HW139079   5.247   2.751  12.065 -0.3960  0.1135  0.5284
12546SOL    HW239080   5.307   2.663  12.172  0.1959  0.7346  0.7113
12547SOL     OW39081   0.883   1.453   1.496  0.2547 -0.2022  0.3648
12547SOL    HW139082   0.789   1.466   1.483  0.4767  1.1486 -0.0415
12547SOL    HW239083   0.890   1.367   1.536 -1.0740 -0.8747 -0.7706
12548SOL     OW39084   1.218   2.202   8.899  0.8229  0.3596  0.5610
12548SOL    HW139085   1.257   2.114   8.897  3.7468  1.5561  0.4031
12548SOL    HW239086   1.249   2.243   8.818 -1.9036  1.0544 -0.2235
12549SOL     OW39087   2.019   0.560  10.094 -0.2693 -0.3086  0.5479
12549SOL    HW139088   2.111   0.553  10.121 -0.3486 -2.7000  0.4542
12549SOL    HW239089   1.975   0.489  10.141 -2.2567  1.2432  1.1594
12550SOL     OW39090   7.220   0.504   4.405  0.0593  0.0435  0.2332
12550SOL    HW139091   7.213   0.599   4.393 -0.8662 -0.0575 -0.0965
12550SOL    HW239092   7.143   0.481   4.457 -0.3465 -0.6882 -0.6775
12551SOL     OW39093   4.332   0.489   0.972 -0.0781  0.6732  0.0669
12551SOL    HW139094   4.309   0.522   1.059 -0.4874 -2.3286  1.2210
12551SOL    HW239095   4.426   0.502   0.965  0.3198 -0.7913  1.8786
12552SOL     OW39096   4.549   2.620   3.873  0.1325  0.3296  0.5588
12552SOL    HW139097   4.488   2.557   3.911 -2.0708  2.3907  0.6461
12552SOL    HW239098   4.634   2.596   3.910 -0.7316 -2.0715  1.1781
12553SOL     OW39099   5.292   5.385   7.482 -0.0592  0.5338 -0.4034
12553SOL    HW139100   5.228   5.347   7.542 -1.1305 -0.7906 -2.2827
12553SOL    HW239101   5.371   5.334   7.496  0.0700  0.9956  0.6583
12554SOL     OW39102   2.650   4.291   2.818 -0.1417 -0.3469  0.1195
12554SOL    HW139103   2.634   4.272   2.726 -0.5890 -1.8639  0.4831
12554SOL    HW239104   2.723   4.353   2.818 -0.6181  0.2301 -1.2727
12555SOL     OW39105   6.936   2.008   4.303 -0.1341  0.2519  0.1648
12555SOL    HW139106   6.864   1.953   4.335 -1.5024  1.3524 -0.9052
12555SOL    HW239107   6.940   1.989   4.209  0.4060  0.8391  0.0645
12556SOL     OW39108   5.735   0.987   6.027 -0.3133 -0.0226  0.9035
12556SOL    HW139109   5.816   0.939   6.046  0.5980  0.6253 -1.0329
12556SOL    HW239110   5.724   1.046   6.101  0.5419 -0.6703  1.5745
12557SOL     OW39111   5.643   3.005   7.406 -0.1684  0.3849  0.1455
12557SOL    HW139112   5.710   2.960   7.355  0.6253  1.0610  0.5653
12557SOL    HW239113   5.563   2.992   7.357  0.6162  1.2320 -1.4277
12558SOL     OW39114   2.445   7.105   5.069 -0.2361  0.2010 -0.0883
12558SOL    HW139115   2.486   7.173   5.016 -1.6613  1.3116  0.1705
12558SOL    HW239116   2.498   7.101   5.149  0.1804  0.6128 -0.3430
12559SOL     OW39117   3.759   6.459   2.857  0.3026 -0.5608 -0.0040
12559SOL    HW139118   3.779   6.423   2.943  1.0329 -0.7959 -0.2628
12559SOL    HW239119   3.842   6.493   2.825 -0.0695 -0.0140 -0.4053
12560SOL     OW39120   1.611   1.297   6.738  0.0634  0.2947  0.0009
12560SOL    HW139121   1.518   1.281   6.721 -0.2835  0.2426  1.7417
12560SOL    HW239122   1.652   1.211   6.728 -0.0496  0.3410 -0.8903
12561SOL     OW39123   7.716   4.638  12.225  0.1563 -0.5149  0.6478
12561SOL    HW139124   7.687   4.605  12.310 -0.2302 -0.6628  0.4641
12561SOL    HW239125   7.635   4.662  12.180  0.4384  0.8617  0.8321
12562SOL     OW39126   6.745   0.445  10.827 -0.0255  0.0674 -0.1525
12562SOL    HW139127   6.679   0.509  10.804 -0.1405 -0.8767 -2.7245
12562SOL    HW239128   6.804   0.443  10.752  1.5045 -0.9252  1.0121
12563SOL     OW39129   2.420   6.537   9.452  0.6463  0.4128 -0.3744
12563SOL    HW139130   2.372   6.561   9.531  0.4921 -1.0120  0.0000
12563SOL    HW239131   2.379   6.455   9.423  1.1667  0.5373 -1.5223
12564SOL     OW39132   3.437   5.068   2.551 -0.0769  0.2496 -0.4276
12564SOL    HW139133   3.353   5.103   2.578  0.1853  0.6410 -0.1080
12564SOL    HW239134   3.419   4.976   2.530 -0.5917  0.3484 -0.4311
12565SOL     OW39135   5.830   4.935   0.682 -0.2885  0.1114 -0.4608
12565SOL    HW139136   5.925   4.945   0.689  0.1099 -0.9541 -3.1978
12565SOL    HW239137   5.814   4.843   0.703 -0.9147  0.5214  1.0378
12566SOL     OW39138   1.121   6.394   1.726 -0.0185 -0.2335 -0.1316
12566SOL    HW139139   1.128   6.380   1.820  0.9240  0.9207  0.0041
12566SOL    HW239140   1.138   6.308   1.687 -1.2116 -0.8928  0.7516
12567SOL     OW39141   6.141   0.577   8.530 -0.0760  0.6476  0.9443
12567SOL    HW139142   6.140   0.656   8.477 -0.8263 -1.4408 -2.4728
12567SOL    HW239143   6.210   0.523   8.490 -0.5116 -0.9630  2.2735
12568SOL     OW39144   1.224   1.479   8.321  0.5070  0.3516  0.2692
12568SOL    HW139145   1.147   1.532   8.346 -0.1173 -0.7638  0.8011
12568SOL    HW239146   1.287   1.494   8.392  0.3465  0.4220  0.3990
12569SOL     OW39147   1.043   1.555   8.949 -0.2555  0.3589 -0.3770
12569SOL    HW139148   1.033   1.648   8.966 -2.8005  0.0738 -0.0135
12569SOL    HW239149   1.077   1.550   8.859 -0.7112  1.6229 -0.6313
12570SOL     OW39150   6.546   1.496  10.515  0.2108  0.3475 -0.3364
12570SOL    HW139151   6.459   1.521  10.483 -0.1448 -0.3337  0.0688
12570SOL    HW239152   6.599   1.486  10.436 -0.6661 -1.3600 -0.7667
12571SOL     OW39153   1.911   6.904  10.723 -0.5638 -0.7203  0.0252
12571SOL    HW139154   1.985   6.949  10.682 -1.0656  0.9376  0.8652
12571SOL    HW239155   1.947   6.820  10.751  0.1185 -1.4175 -2.6050
12572SOL     OW39156   0.277   3.960   7.717 -0.2909  0.2350 -0.4636
12572SOL    HW139157   0.248   3.872   7.739 -0.9154  0.3575 -0.7900
12572SOL    HW239158   0.286   4.004   7.802  0.5315 -0.2862 -0.2626
12573SOL     OW39159   3.308   3.582  11.597 -0.5555 -0.0862 -0.0019
12573SOL    HW139160   3.359   3.565  11.518 -0.9788 -0.3571 -0.2218
12573SOL    HW239161   3.218   3.561  11.572 -0.6245 -0.6705  0.7020
12574SOL     OW39162   2.867   3.712  11.571  0.0816  0.1460  0.3859
12574SOL    HW139163   2.778   3.690  11.543  0.5641 -0.6751 -0.5385
12574SOL    HW239164   2.874   3.673  11.658 -0.0457 -0.9207 -0.0582
12575SOL     OW39165   5.837   4.879   8.776 -0.3544  0.0597 -0.4130
12575SOL    HW139166   5.763   4.937   8.794 -1.2249 -1.1270 -0.0457
12575SOL    HW239167   5.875   4.862   8.862  0.5592  0.9241 -0.6349
12576SOL     OW39168   0.774   0.558   4.578 -0.9689  0.2654 -0.2590
12576SOL    HW139169   0.853   0.599   4.614 -0.7422  0.3854 -0.8899
12576SOL    HW239170   0.798   0.465   4.570 -1.6071 -0.1025  1.5243
12577SOL     OW39171   7.473   1.180   8.923  0.1325 -0.1666 -0.9469
12577SOL    HW139172   7.413   1.143   8.988  0.7038 -1.9075 -1.3723
12577SOL    HW239173   7.501   1.106   8.870  2.0130  0.7303 -1.3022
12578SOL     OW39174   3.776   0.547   1.340  0.0950  0.1497 -0.0016
12578SOL    HW139175   3.847   0.599   1.379 -0.3859  2.0419 -1.5131
12578SOL    HW239176   3.820   0.490   1.277  0.3772  0.8611 -0.4706
12579SOL     OW39177   7.375   0.284   4.618 -0.4178  0.4739 -0.3943
12579SOL    HW139178   7.457   0.327   4.643 -0.8137  0.9327  0.1414
12579SOL    HW239179   7.380   0.276   4.522  0.6124 -0.2644 -0.2959
12580SOL     OW39180   1.103   5.543  11.585  0.0642 -0.7246  0.0427
12580SOL    HW139181   1.107   5.510  11.675  0.2622 -1.3677 -0.1930
12580SOL    HW239182   1.036   5.490  11.542 -0.9753  0.4526  0.1426
12581SOL     OW39183   6.972   6.496  11.053 -0.0309 -0.1829 -0.3069
12581SOL    HW139184   6.905   6.512  11.120  0.5393  1.1625 -0.0276
12581SOL    HW239185   7.055   6.518  11.095  0.6642 -2.0524 -0.5776
12582SOL     OW39186   6.853   4.749  12.441  0.0195 -0.8929 -0.1140
12582SOL    HW139187   6.804   4.762  12.360 -0.1576 -1.9118 -0.1792
12582SOL    HW239188   6.799   4.789  12.509  0.0963 -0.1681 -0.4743
12583SOL     OW39189   6.796   0.050   0.774 -0.2731  0.3198 -0.1178
12583SOL    HW139190   6.828   0.121   0.829 -1.6140  1.3636 -0.6396
12583SOL    HW239191   6.828  -0.030   0.817  3.5308  1.2283 -0.9316
12584SOL     OW39192   1.358   6.625   6.330  0.1185 -0.5407 -0.1616
12584SOL    HW139193   1.302   6.621   6.407  0.5026 -2.6099  0.0641
12584SOL    HW239194   1.375   6.718   6.317 -0.8615 -0.0872  1.5762
12585SOL     OW39195   3.991   0.681  11.816  0.6649 -0.2199 -0.1880
12585SOL    HW139196   3.975   0.750  11.881  0.9579  0.9936 -1.3729
12585SOL    HW239197   3.918   0.620  11.828 -0.1300  0.7755  0.2523
12586SOL     OW39198   4.053   2.610   8.948  0.1979 -0.2276 -0.4388
12586SOL    HW139199   4.046   2.704   8.932 -2.4207 -0.3970 -0.7233
12586SOL    HW239200   4.148   2.593   8.951  0.7421  2.4791  0.2319
12587SOL     OW39201   2.933   6.986   0.884 -0.9317  0.4707  0.3422
12587SOL    HW139202   2.899   6.901   0.855 -1.9312  1.5067 -1.7992
12587SOL    HW239203   2.959   6.972   0.975  2.4373 -3.1392 -0.8855
12588SOL     OW39204   7.003   2.444   6.936 -0.3927 -0.1555  0.0105
12588SOL    HW139205   7.023   2.433   6.843  1.4039  0.4734  0.2940
12588SOL    HW239206   7.008   2.355   6.972 -1.0409 -0.3949 -0.4574
12589SOL     OW39207   6.768   7.961   0.200 -0.3621  0.1606 -0.4969
12589SOL    HW139208   6.733   7.924   0.281 -1.6936 -1.3607 -1.7098
12589SOL    HW239209   6.784   7.886   0.143  1.2905  1.1268 -1.3987
12590SOL     OW39210   6.103   0.708   0.685 -0.1448 -0.8072  0.0945
12590SOL    HW139211   6.195   0.697   0.659  1.3902  3.0231  2.9199
12590SOL    HW239212   6.063   0.758   0.613  1.4108  1.5297  0.7267
12591SOL     OW39213   2.055   3.231   4.269  0.2886  0.0366 -0.0921
12591SOL    HW139214   2.147   3.208   4.255  0.4105  1.2191 -1.4910
12591SOL    HW239215   2.046   3.319   4.233 -0.7621  1.1389  2.5763
12592SOL     OW39216   1.433   6.697   5.006 -0.2615 -0.3430 -0.4710
12592SOL    HW139217   1.393   6.615   4.977  1.4173 -1.4887  0.3111
12592SOL    HW239218   1.491   6.671   5.078 -0.6317  1.7197  0.6324
12593SOL     OW39219   6.211   1.633   0.724  0.2541  0.4766 -0.3218
12593SOL    HW139220   6.194   1.726   0.732  1.6492  0.6309  1.6461
12593SOL    HW239221   6.159   1.593   0.794  1.2203  0.0226  0.1511
12594SOL     OW39222   6.794   4.499   2.957 -0.4543 -0.7543  0.0477
12594SOL    HW139223   6.776   4.458   3.041 -2.1179 -0.3452 -0.0638
12594SOL    HW239224   6.880   4.539   2.967 -0.1491 -1.6531  1.1667
12595SOL     OW39225   7.858   7.772   0.174 -0.1295  0.4905 -0.2866
12595SOL    HW139226   7.778   7.781   0.225 -0.0244  3.1656 -0.4849
12595SOL    HW239227   7.828   7.741   0.088 -0.6933 -0.4337  0.2229
12596SOL     OW39228   2.584   6.151   9.571 -0.5477  0.0053 -0.6637
12596SOL    HW139229   2.516   6.127   9.634  2.3993 -1.4516  2.2896
12596SOL    HW239230   2.583   6.081   9.507 -1.2527 -0.4887 -0.1328
12597SOL     OW39231   3.853   7.229   2.246 -0.5258 -0.0950 -0.2768
12597SOL    HW139232   3.808   7.267   2.321  0.0686  1.1661 -0.5412
12597SOL    HW239233   3.788   7.172   2.205 -1.7753  1.4093 -0.4432
12598SOL     OW39234   4.045   2.775   2.190 -0.1784  0.0654  0.1838
12598SOL    HW139235   4.139   2.756   2.194 -0.1987  0.1211  1.3941
12598SOL    HW239236   4.003   2.699   2.230 -0.6219  0.2233  0.0299
12599SOL     OW39237   2.235   1.743   3.787  0.0335  0.6642 -0.4497
12599SOL    HW139238   2.330   1.752   3.790  0.0532  0.4483 -0.4150
12599SOL    HW239239   2.210   1.720   3.876 -0.0981  1.1530 -0.3537
12600SOL     OW39240   6.739   6.215   1.184 -0.4944 -0.0411 -0.8821
12600SOL    HW139241   6.698   6.183   1.103 -0.8202 -2.7207  0.2324
12600SOL    HW239242   6.684   6.287   1.212 -1.3431 -0.1446 -2.1807
12601SOL     OW39243   5.187   3.302   8.614  0.0012 -0.1131 -0.6644
12601SOL    HW139244   5.276   3.335   8.609 -0.7940  2.0014 -2.4882
12601SOL    HW239245   5.154   3.333   8.698  0.5198  0.3706 -0.6361
12602SOL     OW39246   7.970   4.466   7.425  0.1073  0.0202 -0.2962
12602SOL    HW139247   7.937   4.514   7.349  0.9716 -0.3416 -0.9262
12602SOL    HW239248   8.054   4.430   7.395  0.4913 -0.0742  0.8614
12603SOL     OW39249   4.148   3.581  11.595 -0.2687 -0.0404  0.7206
12603SOL    HW139250   4.082   3.550  11.658  0.3988 -0.7321  1.0798
12603SOL    HW239251   4.215   3.513  11.593  0.6201  0.8114  0.6150
12604SOL     OW39252   5.070   6.356   0.016 -0.0818 -0.4133  0.1807
12604SOL    HW139253   5.152   6.402  -0.002 -0.4425 -0.4315 -1.7147
12604SOL    HW239254   5.017   6.420   0.063 -0.0323  0.6388 -1.1448
12605SOL     OW39255   0.777   6.678   2.341 -0.2003 -0.4847  0.1363
12605SOL    HW139256   0.763   6.656   2.249 -3.5122 -1.3380  0.7349
12605SOL    HW239257   0.789   6.593   2.384  0.7631 -0.1249  0.6077
12606SOL     OW39258   4.831   0.147   1.584  0.2068 -0.5417  0.8253
12606SOL    HW139259   4.776   0.204   1.637  0.6067  0.3493  0.3019
12606SOL    HW239260   4.771   0.107   1.521  0.3654  1.7651 -0.8976
12607SOL     OW39261   1.977   1.771   0.214  0.1273 -0.2881 -0.0664
12607SOL    HW139262   1.991   1.721   0.134  1.0866  0.7295 -0.5522
12607SOL    HW239263   2.031   1.726   0.280  1.3107  0.3111 -0.5972
12608SOL     OW39264   0.956   2.685   5.239  0.3153 -0.2247 -0.5170
12608SOL    HW139265   0.951   2.680   5.334  1.6308  1.4039 -0.3128
12608SOL    HW239266   0.887   2.747   5.214 -0.6311 -1.3289 -0.7537
12609SOL     OW39267   3.814   4.930  10.801 -0.0705 -0.4451 -0.4210
12609SOL    HW139268   3.828   4.975  10.884  1.2447 -0.3570 -0.6577
12609SOL    HW239269   3.757   4.856  10.822  0.7496 -0.7924  0.6861
12610SOL     OW39270   1.742   4.254   6.195 -0.1884 -0.4458 -0.1297
12610SOL    HW139271   1.714   4.168   6.226 -2.6168  0.1904 -0.3922
12610SOL    HW239272   1.678   4.278   6.129  1.6609  0.6850 -1.6169
12611SOL     OW39273   3.212   2.889   6.225  0.1189 -0.5228 -0.4293
12611SOL    HW139274   3.155   2.836   6.281 -1.4592 -0.0776 -1.5490
12611SOL    HW239275   3.187   2.980   6.244  0.8232 -0.2973 -0.5584
12612SOL     OW39276   0.008   6.151   9.926  0.1454  0.0121  0.1118
12612SOL    HW139277   0.013   6.060   9.954 -0.0975  0.1711  0.7131
12612SOL    HW239278  -0.026   6.197  10.003 -2.6668  0.1636 -1.0704
12613SOL     OW39279   4.260   3.738   9.789  0.0741 -0.1380 -0.2815
12613SOL    HW139280   4.213   3.746   9.706  0.3615  2.2790 -0.2719
12613SOL    HW239281   4.191   3.720   9.854 -0.0830 -2.7850 -1.0431
12614SOL     OW39282   3.263   4.588  10.300  0.0174  0.0287  0.1368
12614SOL    HW139283   3.200   4.622  10.363 -0.6659 -0.0940 -0.4716
12614SOL    HW239284   3.247   4.493  10.298  0.3103 -0.0215  0.0736
12615SOL     OW39285   4.626   4.454  10.485  0.1442  0.3693  0.2485
12615SOL    HW139286   4.597   4.507  10.411 -0.2418  0.5918  0.5570
12615SOL    HW239287   4.577   4.488  10.560  0.5684  0.1817  0.6182
12616SOL     OW39288   4.130   6.333   8.748 -0.1561  0.7040 -0.7926
12616SOL    HW139289   4.078   6.267   8.794 -1.9465  1.5487 -1.5022
12616SOL    HW239290   4.211   6.338   8.798 -0.9349 -0.3313  0.6721
12617SOL     OW39291   5.468   5.039  12.418 -0.6269  0.5062 -0.4285
12617SOL    HW139292   5.383   5.081  12.424 -0.1961  1.2105  1.8578
12617SOL    HW239293   5.463   4.966  12.480 -0.2180 -0.7459 -1.8036
12618SOL     OW39294   0.307   2.552   0.660 -0.3293 -0.2786  0.1056
12618SOL    HW139295   0.385   2.525   0.610 -0.4370 -0.3090 -0.0479
12618SOL    HW239296   0.335   2.551   0.751  0.1549  0.7240 -0.0191
12619SOL     OW39297   5.615   3.343   6.246  0.3623 -0.3592 -0.1783
12619SOL    HW139298   5.671   3.346   6.168  1.1021  0.6342  0.3608
12619SOL    HW239299   5.526   3.342   6.212  0.6457  1.2520 -1.0632
12620SOL     OW39300   5.244   3.165   4.430 -0.3386 -0.5903 -0.1135
12620SOL    HW139301   5.276   3.217   4.355 -0.8348 -0.4219 -0.2107
12620SOL    HW239302   5.150   3.179   4.430 -0.4334 -1.2202  0.0746
12621SOL     OW39303   1.670   4.578   0.643 -0.2747 -0.2997  0.1781
12621SOL    HW139304   1.620   4.496   0.635  0.2583 -0.4569 -2.4226
12621SOL    HW239305   1.603   4.646   0.648 -0.7512 -0.7097 -0.4288
12622SOL     OW39306   2.701   2.983   1.631  0.5125  0.0284 -0.6260
12622SOL    HW139307   2.624   2.927   1.636  1.1070 -0.7753  0.0357
12622SOL    HW239308   2.691   3.031   1.549 -1.9383  1.8451  0.6326
12623SOL     OW39309   1.338   0.372   5.362  0.2339 -0.0978 -0.5723
12623SOL    HW139310   1.255   0.403   5.325 -0.4634 -0.7970  0.3470
12623SOL    HW239311   1.352   0.427   5.438  1.0752  0.5854 -1.2046
12624SOL     OW39312   0.935   3.767   6.574  0.3743  0.3464 -0.0350
12624SOL    HW139313   0.979   3.703   6.630  0.6759 -0.1639 -0.8316
12624SOL    HW239314   0.953   3.852   6.615  0.9580  0.0238  0.3919
12625SOL     OW39315   5.901   7.670   5.596  0.6227 -0.2114 -0.3346
12625SOL    HW139316   5.897   7.765   5.583  2.2519 -0.0488  0.0633
12625SOL    HW239317   5.973   7.658   5.658  0.1686 -1.6906 -0.0531
12626SOL     OW39318   3.783   0.406   5.115  0.6204  0.0203  0.5453
12626SOL    HW139319   3.859   0.442   5.068  0.7510  0.4471  1.0817
12626SOL    HW239320   3.715   0.400   5.048  0.5342  1.4598  0.4767
12627SOL     OW39321   7.239   3.645   0.553  0.2519  0.1199  0.4838
12627SOL    HW139322   7.205   3.734   0.564 -0.7015 -0.3633  1.7407
12627SOL    HW239323   7.164   3.589   0.573  0.5072 -0.9926 -1.4198
12628SOL     OW39324   7.629   2.001   7.750  0.0280 -0.6779 -0.5699
12628SOL    HW139325   7.700   2.065   7.748 -0.5295  0.0387  0.9552
12628SOL    HW239326   7.648   1.946   7.826 -2.1060  0.8866  1.2504
12629SOL     OW39327   3.386   7.212   6.019 -0.6481 -1.0454  0.0521
12629SOL    HW139328   3.474   7.218   6.057 -1.4420  4.2763  1.8006
12629SOL    HW239329   3.332   7.176   6.090 -0.5209 -0.4512  0.4536
12630SOL     OW39330   3.656   5.731   1.323  0.2734  0.6240  0.4618
12630SOL    HW139331   3.682   5.745   1.232 -1.3995 -0.6646 -0.2719
12630SOL    HW239332   3.718   5.782   1.375  0.4998  2.3791 -1.4542
12631SOL     OW39333   3.305   7.565   0.084 -0.3889 -0.6962 -0.8069
12631SOL    HW139334   3.291   7.604   0.171 -1.7740 -1.8115 -0.4875
12631SOL    HW239335   3.217   7.543   0.054  0.2607 -2.8019 -1.3059
12632SOL     OW39336   0.543   6.399   9.772  0.0411 -0.1104 -0.1101
12632SOL    HW139337   0.595   6.479   9.764  0.5996 -0.2285  1.7684
12632SOL    HW239338   0.453   6.427   9.757  0.2133  0.9123  0.6168
12633SOL     OW39339   5.385   2.945   1.205 -0.3606 -0.4006  0.3457
12633SOL    HW139340   5.390   3.040   1.219  0.2112 -0.5565  1.3412
12633SOL    HW239341   5.459   2.910   1.256 -0.3279 -1.3487 -0.3309
12634SOL     OW39342   2.077   3.117   1.330 -0.8678  0.8264  0.3699
12634SOL    HW139343   2.033   3.199   1.352 -0.9035  0.6186  1.0851
12634SOL    HW239344   2.148   3.144   1.272  0.2548  1.6032  2.0247
12635SOL     OW39345   5.740   2.518  11.576 -0.2618 -0.4773 -0.2531
12635SOL    HW139346   5.706   2.551  11.660  0.3571  2.4642 -1.0298
12635SOL    HW239347   5.835   2.526  11.584 -0.1111 -1.6607 -0.7016
12636SOL     OW39348   7.309   7.451   6.058  0.7358  0.0452  0.0564
12636SOL    HW139349   7.326   7.360   6.034  1.2977 -0.3027  1.6627
12636SOL    HW239350   7.378   7.501   6.013  0.0863 -0.2080 -1.2939
12637SOL     OW39351   0.450   2.911   0.813 -0.0048 -0.1891 -0.6776
12637SOL    HW139352   0.457   3.004   0.791  1.6148 -0.3086 -0.8077
12637SOL    HW239353   0.428   2.868   0.730 -0.7133  0.0681 -0.6247
12638SOL     OW39354   1.668   4.165   8.512  0.2737  0.1878 -0.8448
12638SOL    HW139355   1.648   4.111   8.588 -0.6894 -0.1424 -1.3134
12638SOL    HW239356   1.696   4.249   8.548 -0.7717  0.2377 -0.1294
12639SOL     OW39357   4.042   6.165   1.083 -0.2209  0.1026  0.2442
12639SOL    HW139358   4.022   6.203   1.169 -0.0086 -0.1580  0.4115
12639SOL    HW239359   3.979   6.205   1.024 -0.2805  0.3878  0.4983
12640SOL     OW39360   3.879   2.562   0.698  0.2536 -0.3564  0.2446
12640SOL    HW139361   3.912   2.652   0.695 -0.9642  0.2374  2.5204
12640SOL    HW239362   3.930   2.516   0.631  1.7509  1.7344 -0.1657
12641SOL     OW39363   1.606   0.834  10.889  0.9180  0.0676 -0.1380
12641SOL    HW139364   1.635   0.851  10.799 -0.3119  0.2532 -0.5196
12641SOL    HW239365   1.663   0.764  10.920  0.9670 -0.4225 -1.2817
12642SOL     OW39366   4.421   5.374   2.433 -0.2364  0.1817 -0.0719
12642SOL    HW139367   4.423   5.468   2.445  1.8877  0.3225 -1.0629
12642SOL    HW239368   4.397   5.362   2.341  0.1915 -0.2215 -0.1349
12643SOL     OW39369   1.495   5.084   5.614 -0.0926 -0.0255 -0.0208
12643SOL    HW139370   1.576   5.103   5.567 -0.7647  0.9051 -0.8430
12643SOL    HW239371   1.430   5.070   5.545 -1.0428  1.1281  0.5894
12644SOL     OW39372   0.478   6.644  10.983  0.3499  0.0833 -0.2224
12644SOL    HW139373   0.505   6.557  11.013 -1.6922 -1.4701 -2.4758
12644SOL    HW239374   0.533   6.705  11.032  0.4425 -2.3439  3.0215
12645SOL     OW39375   3.577   1.688   9.154 -0.2499 -0.0736  0.1294
12645SOL    HW139376   3.578   1.651   9.242  0.2739  1.0994  0.6373
12645SOL    HW239377   3.487   1.674   9.124 -0.6306  0.1160  1.1183
12646SOL     OW39378   5.368   5.944  11.258 -0.1104  0.1207 -0.3138
12646SOL    HW139379   5.420   5.905  11.329 -1.6621 -0.2385  0.6880
12646SOL    HW239380   5.406   6.031  11.246  0.6528 -0.0903  0.4630
12647SOL     OW39381   1.858   0.592   5.699  0.2174 -0.3521 -0.5012
12647SOL    HW139382   1.818   0.622   5.781 -1.3860 -0.0532 -1.3395
12647SOL    HW239383   1.783   0.570   5.643  1.2593 -0.1559 -2.0290
12648SOL     OW39384   1.863   1.994   6.847 -0.4501 -0.2154 -0.1692
12648SOL    HW139385   1.889   2.081   6.817  2.5153 -0.7522  0.5160
12648SOL    HW239386   1.868   1.939   6.769 -2.0791  0.1273 -0.5494
12649SOL     OW39387   4.493   3.687  10.641  0.1647 -0.3138  0.1695
12649SOL    HW139388   4.520   3.755  10.579 -0.5267 -0.1538  0.0282
12649SOL    HW239389   4.486   3.733  10.724 -0.7544 -0.0879 -0.0155
12650SOL     OW39390   0.363   6.912   8.409 -0.4245 -0.2004 -0.0551
12650SOL    HW139391   0.417   6.882   8.483  0.4470  0.9993 -0.1736
12650SOL    HW239392   0.286   6.856   8.412  0.6365 -1.6939  0.3761
12651SOL     OW39393   7.472   6.437  11.221 -0.5680 -0.2878 -0.2561
12651SOL    HW139394   7.432   6.428  11.134 -2.7027  1.4565  0.4572
12651SOL    HW239395   7.472   6.531  11.238  0.2856 -0.5554  1.4385
12652SOL     OW39396   2.151   0.338   3.888 -0.1326 -0.5484 -0.1288
12652SOL    HW139397   2.068   0.304   3.921  0.1649 -0.3417  0.8514
12652SOL    HW239398   2.176   0.406   3.949  0.6388 -0.4338 -0.5558
12653SOL     OW39399   3.860   2.717   6.927  0.4753  0.7101  0.0199
12653SOL    HW139400   3.821   2.789   6.977 -2.0989 -0.5738  0.0488
12653SOL    HW239401   3.870   2.647   6.991  1.8326  0.6265 -0.2585
12654SOL     OW39402   6.446   2.669  10.626  0.3316  0.2715 -0.0724
12654SOL    HW139403   6.381   2.633  10.566  1.6163 -0.4902 -1.0788
12654SOL    HW239404   6.440   2.764  10.616  0.6182  0.1509 -1.5559
12655SOL     OW39405   0.919   5.006  11.275 -0.2830 -0.7585  0.0623
12655SOL    HW139406   0.840   4.973  11.317 -0.4737 -1.1355 -0.5767
12655SOL    HW239407   0.892   5.085  11.230  0.0832  0.0687  1.2378
12656SOL     OW39408   1.984   7.530   6.355 -0.4020  0.0119  0.2992
12656SOL    HW139409   2.066   7.528   6.405 -1.0139  1.3380  1.4079
12656SOL    HW239410   1.976   7.621   6.325 -1.4738 -0.0989  0.2033
12657SOL     OW39411   7.281   1.203   9.437 -0.9914 -0.1723  0.5486
12657SOL    HW139412   7.324   1.117   9.442 -0.6434 -0.0754 -0.5307
12657SOL    HW239413   7.192   1.187   9.469 -0.5106 -0.6080  1.7588
12658SOL     OW39414   2.885   5.116   2.131  0.0284 -0.0152 -0.0242
12658SOL    HW139415   2.937   5.107   2.051  0.7639 -0.9435  0.5297
12658SOL    HW239416   2.851   5.028   2.148  0.9376 -0.1471  1.3566
12659SOL     OW39417   7.953   3.932   7.117 -0.3249 -0.3395  0.2389
12659SOL    HW139418   7.897   3.994   7.071 -2.5849 -2.2512  0.2145
12659SOL    HW239419   7.985   3.980   7.193  0.5765  1.7648 -1.3850
12660SOL     OW39420   3.101   3.483  11.151 -0.3929 -0.1761  0.1733
12660SOL    HW139421   3.090   3.575  11.177 -0.0531  0.1191 -0.6999
12660SOL    HW239422   3.195   3.467  11.155 -0.6058 -1.1843  2.5662
12661SOL     OW39423   4.706   6.766   2.036 -0.0522 -0.1656  0.1181
12661SOL    HW139424   4.799   6.767   2.012  0.0648  0.5232  0.5714
12661SOL    HW239425   4.692   6.849   2.082 -0.9766 -0.1171 -0.2365
12662SOL     OW39426   7.129   3.678   8.695  0.0599 -0.9564 -0.1062
12662SOL    HW139427   7.168   3.763   8.677 -1.3429 -0.1700  0.4607
12662SOL    HW239428   7.187   3.615   8.651 -0.0750  0.4429 -2.4357
12663SOL     OW39429   3.490   7.149   2.453  0.0558  0.0727 -0.5057
12663SOL    HW139430   3.472   7.197   2.372 -0.8442  0.1752 -0.2534
12663SOL    HW239431   3.446   7.065   2.442 -2.8760  1.2577  1.1289
12664SOL     OW39432   5.016   0.634   2.840 -0.5555  0.3725  0.2515
12664SOL    HW139433   5.097   0.684   2.837 -0.1344 -0.2961 -2.5848
12664SOL    HW239434   4.950   0.692   2.802 -0.9027  0.1379  0.4916
12665SOL     OW39435   5.354   1.882   4.857  0.3328  0.2598  0.7020
12665SOL    HW139436   5.381   1.973   4.872 -0.5249  0.6394  0.0902
12665SOL    HW239437   5.361   1.840   4.942  1.2701  0.7572  0.8779
12666SOL     OW39438   1.432   5.044   9.820  0.1219  0.4503  0.1771
12666SOL    HW139439   1.503   4.986   9.793  0.1292  0.7498 -0.4830
12666SOL    HW239440   1.468   5.092   9.895 -0.1608 -0.9192  1.2219
12667SOL     OW39441   5.436   2.575   7.602  0.4349 -0.2013  0.2151
12667SOL    HW139442   5.438   2.625   7.684  0.5415 -1.8326  1.2484
12667SOL    HW239443   5.527   2.572   7.573  0.5546 -0.5483  0.6267
12668SOL     OW39444   3.097   4.303   2.593  0.3531 -0.3410 -0.1183
12668SOL    HW139445   3.115   4.321   2.685 -1.6886 -2.6896  0.8250
12668SOL    HW239446   3.128   4.213   2.579 -0.6919 -0.5443 -1.3255
12669SOL     OW39447   1.088   2.517   4.380 -0.3608  0.2414 -0.0453
12669SOL    HW139448   1.042   2.467   4.313  0.4444  0.9194 -1.1314
12669SOL    HW239449   1.042   2.496   4.461 -1.2054 -0.7823 -0.7635
12670SOL     OW39450   0.839   3.098  11.162  0.4961 -0.0508  0.0350
12670SOL    HW139451   0.807   3.027  11.218  2.2180 -0.4313  0.6066
12670SOL    HW239452   0.910   3.059  11.111  1.3104  1.1630  0.1685
12671SOL     OW39453   4.580   6.321   1.721  0.1506  0.3221 -0.1031
12671SOL    HW139454   4.661   6.281   1.753 -1.0106  0.3324  3.3199
12671SOL    HW239455   4.590   6.414   1.741 -1.2225  0.1097  1.9224
12672SOL     OW39456   7.893   3.006   7.807  0.0263  0.4086  0.1017
12672SOL    HW139457   7.912   3.079   7.866  1.0807  0.5451 -0.3741
12672SOL    HW239458   7.970   3.002   7.749 -0.5242 -0.3652 -0.5980
12673SOL     OW39459   0.493   6.375   5.954  0.0589  0.1966  0.2248
12673SOL    HW139460   0.480   6.388   5.860 -0.6212  0.8241  0.3967
12673SOL    HW239461   0.588   6.386   5.967  0.4892 -1.9946 -0.6851
12674SOL     OW39462   0.044   4.254   3.381  0.9590 -0.7123  0.7307
12674SOL    HW139463   0.022   4.184   3.319  2.8012 -1.2222  0.5993
12674SOL    HW239464   0.034   4.335   3.331 -1.8032 -0.7507  1.0562
12675SOL     OW39465   3.385   0.800   0.240 -0.0706 -0.0512 -0.1134
12675SOL    HW139466   3.458   0.860   0.252 -1.1655  1.6806 -1.4989
12675SOL    HW239467   3.322   0.850   0.186 -2.9130 -0.8758  2.1746
12676SOL     OW39468   4.399   5.444   7.419  0.0622 -0.3001 -0.1871
12676SOL    HW139469   4.431   5.528   7.387  0.1769 -0.1714  0.2561
12676SOL    HW239470   4.315   5.465   7.459 -0.0811 -0.4605 -0.4029
12677SOL     OW39471   0.281   1.215  11.405  0.3765 -0.1569  0.1378
12677SOL    HW139472   0.229   1.154  11.458  1.4727 -0.6122  0.7203
12677SOL    HW239473   0.342   1.254  11.467  0.0204  1.1881 -0.3316
12678SOL     OW39474   5.561   6.412   5.847 -0.0383 -1.1082  0.1789
12678SOL    HW139475   5.643   6.450   5.816  1.0253 -0.5168  3.2988
12678SOL    HW239476   5.501   6.486   5.852  0.7225 -0.5438  2.1701
12679SOL     OW39477   2.589   0.781   1.931 -0.1985  0.0744  0.0068
12679SOL    HW139478   2.641   0.728   1.870  0.0746  0.4197 -0.0628
12679SOL    HW239479   2.646   0.853   1.955 -0.4276  0.1245  0.4146
12680SOL     OW39480   2.150   3.132   4.879  0.1653  0.6038  0.0521
12680SOL    HW139481   2.115   3.053   4.920  0.1273  1.6718  2.2015
12680SOL    HW239482   2.075   3.174   4.839 -0.0929  0.3262  0.2391
12681SOL     OW39483   3.436   1.072   6.129 -0.0992 -0.3143 -0.0813
12681SOL    HW139484   3.364   1.089   6.068  0.8920  1.2680 -0.8656
12681SOL    HW239485   3.394   1.071   6.215 -0.9107  1.9707 -0.3868
12682SOL     OW39486   6.085   1.214   1.133 -0.0607 -0.0118 -0.0928
12682SOL    HW139487   6.156   1.278   1.144 -1.0652  0.9663  0.8889
12682SOL    HW239488   6.095   1.183   1.043 -0.9851  3.3331 -1.4830
12683SOL     OW39489   4.536   5.212   1.585 -0.2913 -0.0060 -0.5863
12683SOL    HW139490   4.605   5.148   1.566 -1.4678 -1.4170 -0.2798
12683SOL    HW239491   4.548   5.233   1.678 -0.1504 -0.0758 -0.5888
12684SOL     OW39492   6.566   0.019   6.735 -0.2986  0.0821 -0.5642
12684SOL    HW139493   6.607  -0.020   6.658  0.5500  0.2246 -0.1965
12684SOL    HW239494   6.557   0.112   6.713 -0.7459 -0.0106 -0.7782
12685SOL     OW39495   4.573   0.462   6.519  0.3646  0.4346  0.2694
12685SOL    HW139496   4.481   0.486   6.527  0.1018 -0.2571 -0.6013
12685SOL    HW239497   4.605   0.516   6.447  0.5424  0.3769  0.3056
12686SOL     OW39498   5.464   1.544   6.934 -0.5470 -0.0979 -0.1785
12686SOL    HW139499   5.445   1.569   6.843  0.5460  1.1966 -0.0918
12686SOL    HW239500   5.418   1.610   6.987 -1.1777 -0.8446  0.2207
12687SOL     OW39501   6.888   7.112   3.807 -0.1776 -0.0055 -0.0610
12687SOL    HW139502   6.822   7.044   3.795  0.8517 -0.9168 -0.6087
12687SOL    HW239503   6.947   7.077   3.874  0.7714  0.0316 -0.8678
12688SOL     OW39504   3.725   1.961  11.346  0.4535  0.0196  0.2728
12688SOL    HW139505   3.793   1.926  11.403 -0.4557 -1.6875  0.3848
12688SOL    HW239506   3.679   2.026  11.400  0.5987 -0.4320  0.9529
12689SOL     OW39507   7.316   7.514   6.420 -0.9184  0.1208 -0.3511
12689SOL    HW139508   7.390   7.519   6.360  0.2341  0.9449  1.0502
12689SOL    HW239509   7.269   7.597   6.407  1.5746  2.2249  2.4813
12690SOL     OW39510   5.006   1.567   9.779 -0.4628  0.1062  0.7124
12690SOL    HW139511   5.050   1.652   9.785 -0.2892  0.2147 -1.3297
12690SOL    HW239512   5.058   1.518   9.715 -2.3068 -0.4123 -0.4347
12691SOL     OW39513   0.384   6.845   9.864  0.2800 -0.0124  0.1073
12691SOL    HW139514   0.442   6.849   9.788  2.5021  1.7333  1.7393
12691SOL    HW239515   0.432   6.793   9.928 -0.8947 -0.2354  0.8268
12692SOL     OW39516   7.143   4.933   0.846  0.5924  0.1460  0.1212
12692SOL    HW139517   7.180   4.868   0.906  1.6001 -1.0444 -1.7172
12692SOL    HW239518   7.193   5.012   0.864  2.3925 -0.7663 -0.5755
12693SOL     OW39519   7.288   0.493  11.025 -0.2379 -0.1201 -0.4196
12693SOL    HW139520   7.234   0.542  11.088  0.2949  0.0436 -0.0819
12693SOL    HW239521   7.303   0.555  10.953  1.0336  0.4856  0.3329
12694SOL     OW39522   3.776   2.192   8.386  0.4074  0.2849  0.5316
12694SOL    HW139523   3.801   2.279   8.417 -1.5946  1.2464 -0.4176
12694SOL    HW239524   3.841   2.172   8.318 -0.3681  2.0346 -0.7995
12695SOL     OW39525   1.620   4.962   4.022 -0.6530 -0.2696  0.3401
12695SOL    HW139526   1.558   5.011   3.968 -0.7711 -0.8719 -0.0901
12695SOL    HW239527   1.690   4.936   3.962 -0.2204  0.0026  0.7209
12696SOL     OW39528   5.970   7.036   7.022  0.4451 -0.2163 -0.0813
12696SOL    HW139529   5.875   7.049   7.018  0.1285 -1.3462  2.0600
12696SOL    HW239530   6.006   7.124   7.031 -0.2718  0.3131 -1.9141
12697SOL     OW39531   1.134   7.109   0.087 -0.0931 -0.5223  0.2034
12697SOL    HW139532   1.229   7.108   0.097  0.2020 -0.2515 -1.9701
12697SOL    HW239533   1.105   7.184   0.138  0.6643 -1.4256  2.0510
12698SOL     OW39534   1.817   6.247   4.988 -0.0040 -0.1710 -0.0060
12698SOL    HW139535   1.760   6.175   4.961 -1.1020  0.6369  0.0903
12698SOL    HW239536   1.860   6.274   4.907 -0.5212 -0.1410 -0.2803
12699SOL     OW39537   2.802   2.949   8.280 -0.2269  0.4893  0.0038
12699SOL    HW139538   2.853   2.926   8.358 -1.4522  0.0508  0.6983
12699SOL    HW239539   2.807   2.871   8.224  1.8411  1.2918 -1.0739
12700SOL     OW39540   4.088   5.925   1.240 -0.3960 -0.2843  0.1802
12700SOL    HW139541   4.155   5.940   1.307  1.2514  0.1186 -1.4729
12700SOL    HW239542   4.083   6.008   1.192 -0.7985 -0.8587 -0.8083
12701SOL     OW39543   6.491   5.259   1.874 -0.7304  0.2867  0.0911
12701SOL    HW139544   6.516   5.347   1.847 -0.8388  0.7702  1.4841
12701SOL    HW239545   6.445   5.223   1.798  0.4680  0.9226 -0.9790
12702SOL     OW39546   0.186   1.326   5.570  0.4000 -0.5787 -0.1263
12702SOL    HW139547   0.229   1.355   5.650  0.0962  1.1691 -0.5609
12702SOL    HW239548   0.229   1.243   5.549  0.8777 -0.7846  1.5156
12703SOL     OW39549   2.966   3.779   2.849 -0.0450  0.3711 -0.2980
12703SOL    HW139550   3.019   3.745   2.777 -1.2597 -0.2922 -0.9271
12703SOL    HW239551   3.023   3.776   2.925  0.7669 -0.4552 -0.9222
12704SOL     OW39552   4.823   0.597   1.053 -0.1712  0.0260 -0.0953
12704SOL    HW139553   4.791   0.616   1.141  0.6637  1.1348 -0.0068
12704SOL    HW239554   4.917   0.609   1.059  0.0625 -1.3127 -0.8040
12705SOL     OW39555   2.824   5.629  11.265  0.9288  0.2377  0.3439
12705SOL    HW139556   2.757   5.697  11.274 -0.2324 -0.5060 -1.9896
12705SOL    HW239557   2.868   5.649  11.182 -0.3647 -2.5119 -1.1349
12706SOL     OW39558   1.022   6.084  11.072 -0.2711 -0.1940  0.0671
12706SOL    HW139559   0.950   6.055  11.016  0.6067  1.2877 -1.9374
12706SOL    HW239560   0.989   6.164  11.113 -0.6700 -0.9217  1.2200
12707SOL     OW39561   6.042   4.267   7.745  0.4069  0.0052 -0.3450
12707SOL    HW139562   5.969   4.244   7.687 -1.3595 -0.6231  2.0001
12707SOL    HW239563   6.072   4.183   7.781  0.0739  0.5373  1.2249
12708SOL     OW39564   6.069   4.235   0.095  0.0797  0.1075 -0.1516
12708SOL    HW139565   6.162   4.257   0.089 -0.2362  1.8959  0.8831
12708SOL    HW239566   6.030   4.276   0.018 -0.4676  3.2757  1.6445
12709SOL     OW39567   2.185   1.927   6.485  0.1241 -0.2281  0.1117
12709SOL    HW139568   2.189   1.968   6.399 -0.1718  2.3013  1.2247
12709SOL    HW239569   2.272   1.889   6.498 -0.6889 -3.4632 -2.4674
12710SOL     OW39570   1.990   2.930   1.682 -0.3370 -0.3536 -0.0353
12710SOL    HW139571   1.999   2.995   1.752 -0.3237  0.3785 -0.7044
12710SOL    HW239572   1.985   2.846   1.728 -1.3506  0.1930  0.9022
12711SOL     OW39573   0.028   3.564   6.520  0.3255  0.5266 -0.0989
12711SOL    HW139574  -0.050   3.518   6.550  0.3822 -0.0076 -0.7413
12711SOL    HW239575   0.062   3.509   6.449 -0.1968  2.0525 -1.6051
12712SOL     OW39576   6.759   2.517   0.269  0.1825  0.4029  0.8970
12712SOL    HW139577   6.797   2.537   0.183  0.9712 -1.9651  0.5957
12712SOL    HW239578   6.706   2.439   0.253 -1.2528  1.0589  2.2188
12713SOL     OW39579   6.097   5.405   4.833  0.3732 -0.2520  0.3965
12713SOL    HW139580   6.097   5.461   4.755  1.9376  0.1457  0.6481
12713SOL    HW239581   6.051   5.455   4.899  3.1062  1.5672  1.1086
12714SOL     OW39582   0.952   3.631   9.196  0.6588 -0.0103  0.7238
12714SOL    HW139583   1.042   3.657   9.179  0.8576 -0.8765  0.4204
12714SOL    HW239584   0.903   3.713   9.199  1.3596  0.4243  0.3115
12715SOL     OW39585   0.132   3.940   0.392 -0.2437 -0.5721 -0.2499
12715SOL    HW139586   0.082   3.893   0.458 -2.5983 -0.2631 -1.7244
12715SOL    HW239587   0.196   3.991   0.443 -1.7745 -0.5440  1.7716
12716SOL     OW39588   3.947   3.131   3.589 -0.3792  0.0673 -0.1157
12716SOL    HW139589   4.025   3.132   3.534 -0.0199 -0.5735  0.3671
12716SOL    HW239590   3.907   3.216   3.575 -0.8401 -0.4206 -2.1299
12717SOL     OW39591   3.050   2.979   6.920 -0.1110  0.3213 -0.1430
12717SOL    HW139592   3.092   2.967   6.835  2.4994  0.2051  1.0685
12717SOL    HW239593   3.017   2.892   6.943 -0.2045  0.2017 -0.7129
12718SOL     OW39594   3.601   1.149  11.216 -0.1761  0.0229 -0.2584
12718SOL    HW139595   3.667   1.215  11.239 -0.0719 -0.1913  0.0724
12718SOL    HW239596   3.615   1.132  11.123  0.9270 -0.7648  0.0195
12719SOL     OW39597   2.959   5.609   7.066  0.2018 -0.1775 -0.3005
12719SOL    HW139598   2.881   5.555   7.080  0.2098  0.0766  0.7955
12719SOL    HW239599   2.947   5.646   6.978 -2.1145  1.7557  0.7053
12720SOL     OW39600   1.163   5.072   4.627 -0.2016 -0.0612 -0.5008
12720SOL    HW139601   1.106   5.102   4.556 -1.6667  1.7019  1.2620
12720SOL    HW239602   1.134   4.983   4.646 -0.1493 -0.3523 -1.7222
12721SOL     OW39603   0.276   3.043   2.978  0.5013 -0.1935 -0.3411
12721SOL    HW139604   0.207   2.997   2.930 -0.8976  0.2490  1.1403
12721SOL    HW239605   0.296   3.119   2.924  0.7301 -0.9703 -1.3870
12722SOL     OW39606   2.807   7.124  12.155  0.0963  1.3266  0.0897
12722SOL    HW139607   2.773   7.035  12.144  0.5131  1.3342 -1.4152
12722SOL    HW239608   2.823   7.155  12.066  1.4292  2.3358  0.6439
12723SOL     OW39609   0.004   1.532  10.609  0.2440  0.2480 -0.1858
12723SOL    HW139610  -0.031   1.561  10.525 -2.2803 -0.2234  0.6277
12723SOL    HW239611   0.023   1.614  10.656 -1.2166  0.5508 -0.0961
12724SOL     OW39612   2.337   2.121  10.063  0.1333  0.4625  0.3523
12724SOL    HW139613   2.311   2.030  10.045 -0.3779  0.7108 -0.1713
12724SOL    HW239614   2.429   2.115  10.087 -0.0975 -0.2956  1.1166
12725SOL     OW39615   4.099   4.638   3.601  0.1739  0.0694 -0.5510
12725SOL    HW139616   4.101   4.726   3.637 -0.4586 -0.7582  1.7240
12725SOL    HW239617   4.043   4.589   3.661  0.2466 -1.8197 -1.9123
12726SOL     OW39618   4.579   7.228  12.451 -0.0032 -0.5764  0.2413
12726SOL    HW139619   4.568   7.296  12.517 -1.4885  0.5261 -1.0903
12726SOL    HW239620   4.669   7.196  12.465  0.9538  2.0233  0.5397
12727SOL     OW39621   2.999   2.068   2.710 -0.5661 -0.4978  0.3361
12727SOL    HW139622   3.015   2.162   2.699 -0.3449 -0.4953  0.6592
12727SOL    HW239623   2.919   2.051   2.661 -0.3155 -0.2412 -0.1673
12728SOL     OW39624   4.432   4.909   8.721 -0.1206 -0.2988  0.5996
12728SOL    HW139625   4.433   4.823   8.678  1.1772  0.0939 -0.2161
12728SOL    HW239626   4.340   4.924   8.743 -0.5499 -1.3286 -0.3983
12729SOL     OW39627   2.183   5.238   0.742  0.1555 -0.3733 -0.4968
12729SOL    HW139628   2.277   5.260   0.737  0.1016  0.2610  0.8727
12729SOL    HW239629   2.171   5.207   0.831 -0.7365 -1.5546 -1.0052
12730SOL     OW39630   6.344   1.615  12.164  0.2098  0.2861 -0.6150
12730SOL    HW139631   6.353   1.527  12.127 -1.8391  0.5517 -1.9309
12730SOL    HW239632   6.308   1.600  12.252  0.8070 -0.2139 -0.4493
12731SOL     OW39633   7.814   7.662   0.543 -0.8965  0.2756  0.7444
12731SOL    HW139634   7.757   7.615   0.483 -0.6275 -1.6904  1.9426
12731SOL    HW239635   7.902   7.653   0.506 -0.9312  0.4439  0.6188
12732SOL     OW39636   5.498   3.702   5.572  0.0430  0.0608  0.5357
12732SOL    HW139637   5.583   3.668   5.602 -0.1471  0.1623  1.2112
12732SOL    HW239638   5.460   3.743   5.650 -0.2156  0.8508  0.0030
12733SOL     OW39639   5.997   4.197   2.861 -0.0509  0.1864 -0.1130
12733SOL    HW139640   5.953   4.277   2.890 -0.7043  0.9817 -2.9939
12733SOL    HW239641   5.926   4.137   2.841  0.2986  0.0202 -0.9035
12734SOL     OW39642   7.116   0.718  10.126 -0.1403 -0.3530  0.2860
12734SOL    HW139643   7.098   0.624  10.117  0.9509 -0.4555 -1.0253
12734SOL    HW239644   7.042   0.761  10.083 -3.1389 -0.3437  4.7210
12735SOL     OW39645   6.445   2.046   5.820  0.3812 -0.0150 -0.2101
12735SOL    HW139646   6.448   2.141   5.832  0.6734  0.1137 -1.1688
12735SOL    HW239647   6.471   2.010   5.904  1.1552  0.7761 -0.1002
12736SOL     OW39648   4.969   4.610   5.690 -0.0874 -0.0886  0.3704
12736SOL    HW139649   4.883   4.644   5.667 -0.3492 -1.0098 -0.0982
12736SOL    HW239650   5.021   4.623   5.610  0.7525  2.0720  1.2086
12737SOL     OW39651   6.798   7.866   1.544 -0.5656  0.5081  0.1831
12737SOL    HW139652   6.819   7.960   1.550 -0.8746  0.7141 -1.3827
12737SOL    HW239653   6.879   7.822   1.567  0.1010  1.2129 -0.7027
12738SOL     OW39654   0.467   5.009   7.214 -0.0317  0.1871  0.0542
12738SOL    HW139655   0.373   4.995   7.200  0.1723 -3.0848  0.9939
12738SOL    HW239656   0.476   5.103   7.231 -2.6346  1.2065 -3.1896
12739SOL     OW39657   1.079   7.465  12.202  0.1932  0.0908 -0.3086
12739SOL    HW139658   1.171   7.447  12.216 -0.0653 -0.5124  0.7308
12739SOL    HW239659   1.034   7.422  12.275 -0.9798 -0.3094 -1.2223
12740SOL     OW39660   5.838   7.479   2.036 -0.2507 -0.1432  0.3040
12740SOL    HW139661   5.790   7.435   2.106  1.2767  0.8717  2.0886
12740SOL    HW239662   5.834   7.572   2.060  2.5330 -0.0219  0.5531
12741SOL     OW39663   5.028   3.758  12.012  0.8121  0.5339  0.4468
12741SOL    HW139664   5.023   3.795  12.100 -0.4225  1.0102  0.1887
12741SOL    HW239665   5.121   3.762  11.990  1.2648 -0.3268  2.0214
12742SOL     OW39666   5.359   3.560   6.861 -0.2180  0.1400 -0.2173
12742SOL    HW139667   5.302   3.633   6.885 -0.6684 -0.3076  0.0923
12742SOL    HW239668   5.299   3.488   6.841  0.2364 -0.3336  0.0945
12743SOL     OW39669   2.807   5.567   7.515  0.0254 -0.0343 -0.9085
12743SOL    HW139670   2.772   5.654   7.502  1.3267  0.6422 -0.1365
12743SOL    HW239671   2.901   5.580   7.526  0.2542 -1.5324 -0.7784
12744SOL     OW39672   1.158   3.725   7.064 -0.3183  0.4283  0.4084
12744SOL    HW139673   1.152   3.802   7.120  4.1872  3.0170 -2.0547
12744SOL    HW239674   1.231   3.675   7.102  0.0137  0.0378 -0.7141
12745SOL     OW39675   5.766   3.379   5.330 -0.6090 -0.2140  0.4083
12745SOL    HW139676   5.713   3.397   5.408  0.3179  0.6149  0.8807
12745SOL    HW239677   5.806   3.294   5.347 -0.4576 -0.0647  0.8224
12746SOL     OW39678   6.217   4.221   9.654  0.3036 -0.4040  0.2125
12746SOL    HW139679   6.273   4.155   9.613  2.7429  1.0156  1.0341
12746SOL    HW239680   6.178   4.176   9.729 -1.2028 -1.9266 -1.3807
12747SOL     OW39681   7.599   3.365   4.571 -0.1117  0.0865 -0.0451
12747SOL    HW139682   7.685   3.349   4.532 -0.6455 -1.6612 -0.5954
12747SOL    HW239683   7.617   3.383   4.663  0.9217  0.9628 -0.4019
12748SOL     OW39684   6.549   6.793  10.564 -0.5689 -0.3523  0.0292
12748SOL    HW139685   6.539   6.879  10.521  2.7224  0.2328  0.1868
12748SOL    HW239686   6.588   6.737  10.496  1.5146 -0.3790  1.1752
12749SOL     OW39687   3.265   5.501  12.120  0.7177  0.1411  0.6917
12749SOL    HW139688   3.244   5.561  12.192  0.8138  1.1226 -0.0671
12749SOL    HW239689   3.244   5.414  12.154  0.0870  0.6478  1.6574
12750SOL     OW39690   5.882   7.783   6.003 -0.6849  0.2755 -0.2008
12750SOL    HW139691   5.824   7.843   6.049 -0.5153  1.1915 -1.1636
12750SOL    HW239692   5.970   7.805   6.035 -0.6786  0.1557 -0.1345
12751SOL     OW39693   0.511   6.147   3.283 -0.3146  0.1029 -0.4634
12751SOL    HW139694   0.538   6.056   3.273  0.7546  0.4460 -0.8499
12751SOL    HW239695   0.575   6.184   3.344 -0.3266  0.7571 -0.8396
12752SOL     OW39696   3.463   3.794   0.210  0.4853  0.1424 -0.3280
12752SOL    HW139697   3.420   3.793   0.125  2.3639  0.7839 -1.3506
12752SOL    HW239698   3.516   3.714   0.211 -0.2477 -0.3555  0.6698
12753SOL     OW39699   1.185   6.246   7.184  0.4575 -0.0114  0.1449
12753SOL    HW139700   1.163   6.156   7.207  0.5431  0.2301  1.2187
12753SOL    HW239701   1.108   6.297   7.210  0.5611  0.2752 -0.1078
12754SOL     OW39702   3.830   7.228   1.510 -0.3994  0.2858  0.0680
12754SOL    HW139703   3.767   7.182   1.565 -0.8459  0.5038 -0.2508
12754SOL    HW239704   3.811   7.321   1.524  0.2002  0.3635  0.3690
12755SOL     OW39705   0.489   2.017  10.258 -0.0865  0.4022  0.3568
12755SOL    HW139706   0.482   2.104  10.219 -0.2357 -0.0534 -0.6504
12755SOL    HW239707   0.584   2.003  10.267 -0.0325  0.3291 -0.2727
12756SOL     OW39708   0.792   7.463  11.511  0.0612  0.2354  0.2575
12756SOL    HW139709   0.741   7.476  11.591  0.2286  1.0232  0.2444
12756SOL    HW239710   0.874   7.510  11.527 -0.1430  0.9155 -0.5998
12757SOL     OW39711   0.856   0.164  11.319  0.5046  0.2731  0.4465
12757SOL    HW139712   0.847   0.082  11.367 -1.8441  0.1155 -0.1293
12757SOL    HW239713   0.877   0.137  11.229  0.6291  0.3481  0.4533
12758SOL     OW39714   1.360   6.874  10.069  0.0386  0.9781 -0.2018
12758SOL    HW139715   1.320   6.934  10.131 -0.5229  0.3155  0.0950
12758SOL    HW239716   1.453   6.875  10.091 -0.2181  0.3652  1.0115
12759SOL     OW39717   6.081   6.080   4.304  0.4884 -0.1968  0.1545
12759SOL    HW139718   6.013   6.017   4.328  0.6443 -0.0260  1.1057
12759SOL    HW239719   6.146   6.029   4.257  0.5956 -0.7455  0.8837
12760SOL     OW39720   1.567   5.120   4.480  0.3569 -0.4937  1.0321
12760SOL    HW139721   1.491   5.067   4.454 -0.1886  0.2109  1.1416
12760SOL    HW239722   1.643   5.071   4.447 -0.2648  0.1542 -1.6395
12761SOL     OW39723   6.085   5.642   9.602  0.0846 -0.1362 -0.0027
12761SOL    HW139724   6.001   5.675   9.570  0.5597  0.4331 -0.7063
12761SOL    HW239725   6.122   5.715   9.652 -0.1291 -0.6172  0.8867
12762SOL     OW39726   7.680   3.563   3.193  0.2234 -0.0138  0.4798
12762SOL    HW139727   7.702   3.656   3.183 -1.6220  0.6345  1.8223
12762SOL    HW239728   7.615   3.546   3.125  1.1241 -0.5533 -0.2609
12763SOL     OW39729   5.683   2.093  10.108  0.5381  0.1616 -0.2538
12763SOL    HW139730   5.675   2.108  10.202  0.1971  0.7399 -0.3660
12763SOL    HW239731   5.764   2.138  10.083  0.5384  0.1562 -0.2623
12764SOL     OW39732   2.506   5.190   7.910  0.6941  0.1006  0.0304
12764SOL    HW139733   2.573   5.216   7.974  0.5152  0.0155  0.2537
12764SOL    HW239734   2.556   5.151   7.838  0.8577 -0.4654  0.4382
12765SOL     OW39735   2.632   0.886  11.264 -0.0512 -0.1143 -0.1015
12765SOL    HW139736   2.660   0.932  11.185  0.0581  0.9674  0.5411
12765SOL    HW239737   2.680   0.803  11.262  0.2719  0.0834 -0.9549
12766SOL     OW39738   2.913   7.562   0.486 -0.1894  0.0016 -0.5193
12766SOL    HW139739   2.828   7.525   0.462 -0.9182 -0.2675  2.1763
12766SOL    HW239740   2.913   7.650   0.449 -2.0250  0.3246  0.1860
12767SOL     OW39741   3.128   2.404   8.580  0.1785 -0.1987 -0.3129
12767SOL    HW139742   3.044   2.398   8.534  0.0386 -0.1643 -0.0652
12767SOL    HW239743   3.114   2.355   8.661 -0.1561  1.2556  0.5319
12768SOL     OW39744   0.565   7.961   5.463 -0.5993  0.1894 -0.2628
12768SOL    HW139745   0.508   8.029   5.428  0.4782  2.0859  1.4384
12768SOL    HW239746   0.644   8.008   5.490  0.2398 -1.7655  0.8683
12769SOL     OW39747   0.689   3.151  12.293 -0.7643  0.1534  0.1077
12769SOL    HW139748   0.772   3.177  12.252 -1.1075 -0.1765 -0.8184
12769SOL    HW239749   0.672   3.219  12.358  0.0464  0.4165  0.0568
12770SOL     OW39750   6.791   3.918  11.950 -0.1102 -0.1138  0.5269
12770SOL    HW139751   6.866   3.896  11.894 -0.1798  1.3762 -0.2093
12770SOL    HW239752   6.830   3.952  12.030 -0.0129 -1.2468  0.9770
12771SOL     OW39753   2.270   3.142  10.308  0.5618  0.2891 -0.6173
12771SOL    HW139754   2.270   3.077  10.238 -0.8635  0.2825 -0.6380
12771SOL    HW239755   2.209   3.107  10.373  0.8533  0.9386  0.0182
12772SOL     OW39756   3.972   1.909   4.181  0.7129  0.0837 -0.0054
12772SOL    HW139757   3.895   1.853   4.187  0.6039 -0.0198 -1.6519
12772SOL    HW239758   3.984   1.944   4.268 -0.8662 -0.3368  0.4113
12773SOL     OW39759   1.431   0.398   9.527  0.2778  0.8060  0.2898
12773SOL    HW139760   1.396   0.342   9.596  0.8707 -0.2953 -0.2729
12773SOL    HW239761   1.428   0.486   9.564  1.0486  0.1962  1.9331
12774SOL     OW39762   0.230   6.868   3.118  0.0421  0.1941 -0.1283
12774SOL    HW139763   0.200   6.779   3.099  1.0817 -0.0514 -0.6906
12774SOL    HW239764   0.180   6.894   3.195  0.3995 -1.2503  0.6300
12775SOL     OW39765   3.139   6.970   9.553 -0.1228  0.2612  0.1973
12775SOL    HW139766   3.093   7.022   9.618  1.3236  1.4647  0.3056
12775SOL    HW239767   3.116   7.009   9.469 -0.1273  0.2037  0.1713
12776SOL     OW39768   0.488   6.346   2.606  0.0468  0.0577  0.1624
12776SOL    HW139769   0.502   6.321   2.698  1.5740  0.2427  0.0026
12776SOL    HW239770   0.422   6.285   2.575  1.3669 -1.7364  0.6948
12777SOL     OW39771   1.827   0.283   6.368 -0.4786  0.1162 -0.1978
12777SOL    HW139772   1.737   0.294   6.338 -1.0220  0.5510  1.4949
12777SOL    HW239773   1.851   0.368   6.406 -0.0258 -0.5142  0.9997
12778SOL     OW39774   1.982   3.647   6.337 -0.1779  0.0465  0.0140
12778SOL    HW139775   2.059   3.664   6.283 -1.1069  1.9818 -0.7902
12778SOL    HW239776   2.016   3.597   6.412  2.1785  2.1635  0.5027
12779SOL     OW39777   2.171   6.896   4.308 -0.0244 -0.1568  0.1094
12779SOL    HW139778   2.176   6.807   4.273  1.3317  1.1118 -3.4388
12779SOL    HW239779   2.082   6.925   4.287  0.0797 -0.1479 -0.3434
12780SOL     OW39780   1.202   4.794   5.674 -0.1206 -0.4887 -0.3299
12780SOL    HW139781   1.252   4.832   5.602  0.1682  0.3156  0.2776
12780SOL    HW239782   1.202   4.862   5.741 -0.3092 -1.2556  0.4608
12781SOL     OW39783   7.129   4.877   0.507 -0.9885  0.2436 -0.3845
12781SOL    HW139784   7.197   4.944   0.512 -1.2429  0.5534 -1.1067
12781SOL    HW239785   7.081   4.896   0.427 -0.6105 -1.2197 -0.9981
12782SOL     OW39786   3.847   0.857   7.004  0.2126 -0.0209  0.1466
12782SOL    HW139787   3.879   0.780   6.959  0.7129  0.5117 -0.4266
12782SOL    HW239788   3.901   0.929   6.971  0.4188  0.4268  1.4072
12783SOL     OW39789   4.879   0.217   7.655  0.0393  0.6872 -0.0565
12783SOL    HW139790   4.915   0.221   7.743 -0.1060 -1.2872  0.1501
12783SOL    HW239791   4.816   0.145   7.658 -0.8580  1.3648 -1.4724
12784SOL     OW39792   3.261   7.891   9.644 -0.2072  0.2534  0.6508
12784SOL    HW139793   3.288   7.805   9.675  1.7940  0.4781 -0.3505
12784SOL    HW239794   3.184   7.874   9.590  1.0613 -1.1300 -0.7946
12785SOL     OW39795   6.616   4.443   0.888 -0.4995 -0.4713 -0.1610
12785SOL    HW139796   6.635   4.456   0.795  1.9937 -1.1143  0.1916
12785SOL    HW239797   6.689   4.485   0.934 -0.7948 -1.6062  1.4468
12786SOL     OW39798   4.718   4.716   0.088 -0.1953 -0.3398 -0.4714
12786SOL    HW139799   4.657   4.766   0.142 -0.5540 -1.2668  0.0077
12786SOL    HW239800   4.661   4.666   0.028 -0.1246 -2.9673  1.4608
12787SOL     OW39801   3.422   2.326  11.688 -0.1039 -0.1867 -0.4488
12787SOL    HW139802   3.396   2.301  11.777 -0.4476 -0.5706 -0.6497
12787SOL    HW239803   3.381   2.260  11.632  2.1621 -1.4704 -0.7185
12788SOL     OW39804   3.781   6.206   4.463 -0.2672 -0.2556  0.2451
12788SOL    HW139805   3.716   6.256   4.511  0.1564 -0.0509  0.6190
12788SOL    HW239806   3.747   6.117   4.460 -1.0735  0.0649 -0.5148
12789SOL     OW39807   4.780   7.829   3.806  0.5431  0.6690 -0.2608
12789SOL    HW139808   4.717   7.815   3.876  2.1756  0.2539  1.1791
12789SOL    HW239809   4.769   7.920   3.781 -2.0846  0.0824 -1.5714
12790SOL     OW39810   3.234   2.313   0.461 -0.4814  0.4060 -0.0387
12790SOL    HW139811   3.144   2.302   0.492 -1.4880 -0.2080 -2.8490
12790SOL    HW239812   3.259   2.400   0.491 -2.7883  1.4308 -0.8117
12791SOL     OW39813   5.806   4.414   1.879  0.2467  0.0477  0.1378
12791SOL    HW139814   5.726   4.390   1.926  0.3021 -0.1688  0.1247
12791SOL    HW239815   5.786   4.497   1.836 -0.6283 -0.9462 -1.4471
12792SOL     OW39816   2.021   4.318   2.274 -0.1420  0.3080 -0.0123
12792SOL    HW139817   2.094   4.257   2.275  0.0614  0.5573  0.2983
12792SOL    HW239818   2.044   4.383   2.208  0.7257  1.3676  1.2923
12793SOL     OW39819   3.873   2.113   6.467 -0.1287  0.0730  0.5489
12793SOL    HW139820   3.881   2.182   6.533 -1.0408 -0.2856  1.0681
12793SOL    HW239821   3.788   2.073   6.486  0.6660 -1.6359  0.7020
12794SOL     OW39822   2.464   2.297   9.270  0.0727 -0.1676 -0.1251
12794SOL    HW139823   2.521   2.225   9.298  0.8981  0.5297  0.0229
12794SOL    HW239824   2.461   2.289   9.174 -0.5975 -0.9508 -0.0485
12795SOL     OW39825   0.356   5.638   8.269 -0.2303  0.2082 -0.3694
12795SOL    HW139826   0.385   5.600   8.352 -0.4377  0.1792 -0.3086
12795SOL    HW239827   0.363   5.566   8.206  0.5509  0.4132 -0.5168
12796SOL     OW39828   5.946   2.951   6.757  0.1437 -0.6856  0.6437
12796SOL    HW139829   5.885   2.973   6.827  0.4147  0.4249  0.5455
12796SOL    HW239830   5.911   2.994   6.680 -0.2518 -2.0585  0.0351
12797SOL     OW39831   0.225   4.475   5.064 -0.1223 -0.2263 -0.3176
12797SOL    HW139832   0.292   4.510   5.005  0.0044  1.7728  0.9195
12797SOL    HW239833   0.275   4.429   5.132  0.0513  1.2106  0.5705
12798SOL     OW39834   3.292   2.652   0.586  0.2319  0.1721 -0.0673
12798SOL    HW139835   3.285   2.705   0.665  0.8124 -0.5790  0.5041
12798SOL    HW239836   3.278   2.714   0.514  0.0970  0.9393  0.6021
12799SOL     OW39837   0.981   1.523   7.685  0.2782 -0.2272  0.3245
12799SOL    HW139838   1.033   1.575   7.745  0.2776 -2.5875  2.5677
12799SOL    HW239839   0.899   1.572   7.675  0.4464  0.4288  1.9464
12800SOL     OW39840   6.671   0.344   3.057  0.1001 -0.6449  0.2516
12800SOL    HW139841   6.744   0.295   3.019  0.3218  0.2706 -0.5363
12800SOL    HW239842   6.595   0.319   3.004 -0.2825 -1.9173  1.3290
12801SOL     OW39843   3.977   5.689   0.868 -0.2274  0.5981 -0.2869
12801SOL    HW139844   4.035   5.618   0.838 -1.6696 -1.0570  0.6778
12801SOL    HW239845   3.968   5.675   0.962 -1.8281  1.0596 -0.3393
12802SOL     OW39846   0.561   5.975  11.933  0.4090  0.1743 -0.1814
12802SOL    HW139847   0.528   6.016  11.853  2.5711 -0.3948 -1.4378
12802SOL    HW239848   0.581   6.048  11.992  2.3717  0.8653 -1.6397
12803SOL     OW39849   3.330   5.104   0.765  0.6009  0.3520  0.0223
12803SOL    HW139850   3.254   5.162   0.767  1.3664  1.4312 -0.9770
12803SOL    HW239851   3.294   5.018   0.746 -0.3767  0.8412 -0.4217
12804SOL     OW39852   4.421   3.508   9.761  0.1633  0.5163  0.2921
12804SOL    HW139853   4.342   3.475   9.718  0.7986  0.4646 -0.8729
12804SOL    HW239854   4.402   3.600   9.781 -0.5049  0.2691  0.8205
12805SOL     OW39855   5.446   0.441   3.622  0.5097  0.0902  0.0978
12805SOL    HW139856   5.430   0.383   3.547  3.3356  0.1280 -0.6362
12805SOL    HW239857   5.373   0.423   3.682  1.7684 -5.2148  0.5217
12806SOL     OW39858   2.843   6.125   1.181  0.2660 -0.0615 -0.2139
12806SOL    HW139859   2.806   6.099   1.097  1.6897 -1.6809 -0.3982
12806SOL    HW239860   2.841   6.221   1.180 -1.0474 -0.0745 -1.4692
12807SOL     OW39861   3.475   0.130   6.644  0.1600  0.0444  0.3706
12807SOL    HW139862   3.442   0.046   6.612 -2.3831  0.7325  0.8972
12807SOL    HW239863   3.409   0.193   6.617  0.9391  1.5491  1.7842
12808SOL     OW39864   2.339   6.178   0.193 -0.3272  0.5443 -0.1183
12808SOL    HW139865   2.355   6.086   0.218 -1.2363  0.3113 -0.3368
12808SOL    HW239866   2.425   6.213   0.173  0.2102  0.1539  1.3871
12809SOL     OW39867   2.610   5.808   5.053 -0.2311 -0.2394  0.3320
12809SOL    HW139868   2.554   5.805   4.976 -1.2082  0.7026  0.9772
12809SOL    HW239869   2.552   5.787   5.126 -0.4093  3.0949  1.3101
12810SOL     OW39870   0.806   0.539   0.624 -0.4001  0.1405 -0.3749
12810SOL    HW139871   0.732   0.598   0.631 -0.3962  0.1254 -0.1968
12810SOL    HW239872   0.860   0.575   0.554 -1.6164 -0.9830 -1.9802
12811SOL     OW39873   2.150   2.732   4.737  0.1765 -0.3671 -0.4334
12811SOL    HW139874   2.062   2.710   4.768  0.5075 -2.5364 -0.8754
12811SOL    HW239875   2.146   2.825   4.717 -1.5982 -0.0969  0.9131
12812SOL     OW39876   6.605   4.017   0.211  0.4329  0.0202 -0.3625
12812SOL    HW139877   6.530   4.005   0.152  0.1770  0.5011 -0.1368
12812SOL    HW239878   6.576   3.978   0.294  1.2020 -1.6744 -0.8462
12813SOL     OW39879   7.632   1.283   4.142 -0.8699  0.2825 -0.6039
12813SOL    HW139880   7.644   1.378   4.144  2.6713 -0.0469  1.0034
12813SOL    HW239881   7.719   1.248   4.123 -1.7996 -2.7044  0.1072
12814SOL     OW39882   4.285   3.597  12.076 -0.3639  0.4107  0.3337
12814SOL    HW139883   4.194   3.603  12.105 -0.5398 -0.8652  0.0883
12814SOL    HW239884   4.283   3.629  11.986 -0.6287  0.1030  0.2286
12815SOL     OW39885   2.733   7.353   0.360 -0.1628 -0.3565 -0.3645
12815SOL    HW139886   2.771   7.271   0.391 -2.0473 -0.2197  2.6527
12815SOL    HW239887   2.643   7.331   0.338 -1.4100  1.1991  2.6893
12816SOL     OW39888   5.738   4.463   5.361  0.5646  0.3066 -0.0078
12816SOL    HW139889   5.809   4.509   5.406 -0.0159  0.7345  0.4769
12816SOL    HW239890   5.659   4.486   5.409  0.0511  0.0462 -0.7001
12817SOL     OW39891   1.881   0.733   3.401  0.1329  0.0503  0.3672
12817SOL    HW139892   1.976   0.741   3.403  0.0377  1.3876  1.0722
12817SOL    HW239893   1.857   0.715   3.492 -0.3581  1.0586  0.4523
12818SOL     OW39894   5.550   0.227   3.811 -0.3775  0.5286  0.1347
12818SOL    HW139895   5.532   0.312   3.770  0.5990  0.1845 -1.0641
12818SOL    HW239896   5.575   0.170   3.738 -1.4302 -0.9199  0.8683
12819SOL     OW39897   1.428   5.342   8.711 -0.2022 -0.0670 -0.3954
12819SOL    HW139898   1.375   5.302   8.642 -0.6804 -0.9803  0.4968
12819SOL    HW239899   1.518   5.320   8.687 -0.1623  1.4605 -1.8950
12820SOL     OW39900   2.660   0.320   1.142 -0.1691 -0.3652  0.0227
12820SOL    HW139901   2.570   0.342   1.167 -0.2668 -0.2997 -0.3757
12820SOL    HW239902   2.656   0.228   1.116  0.0120 -0.5455  0.6093
12821SOL     OW39903   2.780   4.719   3.540  0.3168  0.0416  0.3741
12821SOL    HW139904   2.758   4.784   3.605  1.5719 -0.4455  1.3341
12821SOL    HW239905   2.848   4.665   3.581  0.7262 -0.6466 -1.1069
12822SOL     OW39906   2.688   4.556   1.646  0.8708 -0.0073 -0.4414
12822SOL    HW139907   2.685   4.494   1.573 -1.5911  0.7813 -1.1020
12822SOL    HW239908   2.668   4.503   1.723  0.5021 -0.3365 -0.7601
12823SOL     OW39909   6.356   7.544  11.683  0.4389 -0.2526  0.3369
12823SOL    HW139910   6.447   7.567  11.701  0.5301  1.5117 -1.8850
12823SOL    HW239911   6.306   7.598  11.744  0.8529  0.9527 -0.3486
12824SOL     OW39912   2.650   2.357   6.727  0.0607 -0.0546 -0.2337
12824SOL    HW139913   2.640   2.351   6.632 -0.2179  0.8354 -0.2701
12824SOL    HW239914   2.689   2.273   6.752  0.3550 -0.2092 -1.1596
12825SOL     OW39915   0.242   7.829   9.875 -0.3703  0.2807  0.7437
12825SOL    HW139916   0.291   7.898   9.830 -0.7431 -0.6589 -1.2068
12825SOL    HW239917   0.292   7.749   9.859 -0.9183 -0.1968  1.3504
12826SOL     OW39918   3.924   4.764   1.382  0.5914 -0.2802  0.0074
12826SOL    HW139919   3.946   4.806   1.299  1.1825  0.0075  0.2975
12826SOL    HW239920   3.976   4.812   1.447 -0.7953  0.3245  0.7207
12827SOL     OW39921   3.089   2.808   8.832 -0.2543 -0.2787 -0.6787
12827SOL    HW139922   3.170   2.859   8.838  0.1446 -0.7990 -1.4920
12827SOL    HW239923   3.023   2.863   8.874  0.9568 -0.8652  2.2917
12828SOL     OW39924   7.625   5.965   6.263 -0.2888 -0.7787 -0.1549
12828SOL    HW139925   7.612   5.975   6.169  0.1461  0.8208 -0.0805
12828SOL    HW239926   7.691   5.896   6.271  1.7658  0.9346 -1.1997
12829SOL     OW39927   6.618   7.049   9.362 -0.0704  0.2440  0.5311
12829SOL    HW139928   6.643   6.998   9.285  1.0245 -0.7809  1.5305
12829SOL    HW239929   6.529   7.021   9.382 -0.3512  0.4929 -0.3147
12830SOL     OW39930   7.704   5.985  11.380 -0.4550 -0.0572  0.0511
12830SOL    HW139931   7.681   6.018  11.293 -1.1821 -0.6009  0.0279
12830SOL    HW239932   7.673   5.894  11.380  0.7087 -0.4661  0.4202
12831SOL     OW39933   6.532   2.220   3.726 -0.2120 -0.9304  0.2826
12831SOL    HW139934   6.544   2.208   3.632 -0.0794  0.1069  0.1636
12831SOL    HW239935   6.620   2.208   3.763 -0.1779 -0.8663  0.2225
12832SOL     OW39936   1.227   0.861   3.914  0.9778  0.2809 -0.3295
12832SOL    HW139937   1.208   0.936   3.972  2.2611 -0.1277  0.6660
12832SOL    HW239938   1.141   0.838   3.877  0.2008  0.9138  0.9821
12833SOL     OW39939   6.767   7.716  12.060 -0.1771  0.1025 -0.2102
12833SOL    HW139940   6.840   7.659  12.084 -1.2016 -1.1241  0.0840
12833SOL    HW239941   6.765   7.783  12.128 -0.7093 -1.1643  1.0684
12834SOL     OW39942   1.147   2.662   0.949 -0.7449 -0.1838 -0.0851
12834SOL    HW139943   1.172   2.727   0.884 -0.5991 -0.2282 -0.0736
12834SOL    HW239944   1.227   2.612   0.965  0.0031  1.5549  2.1564
12835SOL     OW39945   7.293   4.031   0.121  0.2554 -0.8335  0.5242
12835SOL    HW139946   7.198   4.021   0.120  0.1789 -0.1777 -0.9656
12835SOL    HW239947   7.308   4.119   0.153  0.2582 -0.2508 -1.0127
12836SOL     OW39948   4.759   3.916  10.891 -0.1374 -0.5646  0.2922
12836SOL    HW139949   4.763   3.991  10.951  0.1696 -0.8233  0.6005
12836SOL    HW239950   4.669   3.916  10.858 -0.0039  0.2392 -0.0981
12837SOL     OW39951   6.484   1.639   6.810  0.0239  0.1213 -0.1542
12837SOL    HW139952   6.470   1.699   6.737  1.1009 -1.3282 -1.6222
12837SOL    HW239953   6.562   1.589   6.786 -1.2495 -2.3919  0.6268
12838SOL     OW39954   2.024   4.412   8.342  0.4843  0.1465  0.1351
12838SOL    HW139955   2.103   4.389   8.293  0.4133 -1.0033  0.5184
12838SOL    HW239956   2.055   4.459   8.419  0.5939  2.0481 -1.0069
12839SOL     OW39957   1.657   6.500   5.063  0.2479 -0.1611 -0.1889
12839SOL    HW139958   1.746   6.466   5.066 -0.0054 -0.9226 -0.9358
12839SOL    HW239959   1.634   6.499   4.970 -0.9953 -1.2208  0.1012
12840SOL     OW39960   5.749   6.219   2.841 -0.0756 -0.7447  0.4656
12840SOL    HW139961   5.821   6.221   2.778  0.1414 -1.1711  0.6965
12840SOL    HW239962   5.698   6.142   2.817 -0.7194 -0.1993  0.0228
12841SOL     OW39963   0.945   2.764   8.489 -0.1565  0.1296  0.2082
12841SOL    HW139964   0.928   2.687   8.542  1.5704  0.2334  0.9778
12841SOL    HW239965   0.861   2.785   8.449 -1.0071 -1.2126  1.2203
12842SOL     OW39966   3.297   3.959  11.190  0.5383  0.5140  0.2356
12842SOL    HW139967   3.320   3.999  11.105  0.5771  0.4188  0.2015
12842SOL    HW239968   3.285   4.034  11.248 -3.0106  0.8363 -0.6925
12843SOL     OW39969   3.714   6.834  11.815  0.3201  0.1240  0.5337
12843SOL    HW139970   3.746   6.796  11.896 -1.8803 -0.9064  0.9839
12843SOL    HW239971   3.718   6.763  11.751  2.3075  1.0015 -0.4073
12844SOL     OW39972   7.150   0.126   1.095 -0.5881  0.1182 -0.1394
12844SOL    HW139973   7.212   0.199   1.088 -1.3045  0.7610  0.0512
12844SOL    HW239974   7.097   0.147   1.172 -1.7403  0.1386 -0.9058
12845SOL     OW39975   2.294   5.164   7.166  0.0661 -0.5212 -0.1799
12845SOL    HW139976   2.388   5.167   7.152  0.2717  0.1946  1.1650
12845SOL    HW239977   2.284   5.118   7.250 -0.7527 -0.2927 -0.1422
12846SOL     OW39978   0.738   1.780   3.680 -0.2313 -0.2732 -0.4912
12846SOL    HW139979   0.797   1.705   3.687  0.2328 -0.0050 -1.3679
12846SOL    HW239980   0.796   1.856   3.688 -0.7719  0.0176  0.9872
12847SOL     OW39981   7.473   3.865   0.003 -0.1885  0.0784  0.5603
12847SOL    HW139982   7.422   3.933   0.047 -1.9059 -0.8328  0.0693
12847SOL    HW239983   7.530   3.829   0.071 -1.7703 -0.3294  1.7003
12848SOL     OW39984   5.961   3.622   1.369  0.0534 -0.5863 -0.2819
12848SOL    HW139985   5.943   3.712   1.342 -1.3530 -0.3465  1.2754
12848SOL    HW239986   5.875   3.588   1.394  0.9046 -1.5402  1.4888
12849SOL     OW39987   6.862   7.201   9.958 -0.4524 -0.3496 -0.2790
12849SOL    HW139988   6.860   7.118  10.005 -0.2977  0.8011  1.8819
12849SOL    HW239989   6.950   7.235   9.973 -1.4607  1.6699  1.6975
12850SOL     OW39990   6.790   5.706   6.138 -0.2986 -0.0193 -0.0594
12850SOL    HW139991   6.821   5.788   6.175  0.0052 -0.3910  0.5340
12850SOL    HW239992   6.833   5.700   6.053  0.7675 -0.2040  0.4682
12851SOL     OW39993   0.365   5.103   3.457 -0.2433  1.0314 -0.3381
12851SOL    HW139994   0.303   5.167   3.490 -0.3922  0.9976 -0.5524
12851SOL    HW239995   0.445   5.118   3.508 -1.9384 -2.5309  4.1040
12852SOL     OW39996   4.525   3.930   7.841 -0.2163  0.2068  0.0907
12852SOL    HW139997   4.547   4.010   7.794  0.1816 -0.0832 -0.2224
12852SOL    HW239998   4.608   3.881   7.846 -0.0634  0.5574  1.7182
12853SOL     OW39999   7.045   7.637  11.117 -0.5165 -0.0077 -0.0450
12853SOL    HW140000   7.078   7.640  11.027  0.5329 -1.2263  0.2687
12853SOL    HW240001   7.123   7.652  11.172 -0.4976 -2.2825  0.6931
12854SOL     OW40002   6.650   0.495   4.681  0.4128 -0.2337  0.1278
12854SOL    HW140003   6.667   0.426   4.745  1.2944  0.8385  1.1283
12854SOL    HW240004   6.690   0.573   4.720 -0.5858  0.8538 -0.9248
12855SOL     OW40005   6.213   7.421  11.248  0.6214 -0.3268  0.6955
12855SOL    HW140006   6.218   7.504  11.294  0.7503 -0.1101  0.2937
12855SOL    HW240007   6.130   7.425  11.201  0.6597 -0.4001  0.6230
12856SOL     OW40008   5.320   0.310   4.748 -0.0541 -0.2285 -0.3672
12856SOL    HW140009   5.327   0.379   4.682 -0.2575  0.2748  0.1255
12856SOL    HW240010   5.252   0.340   4.808 -0.5951 -1.1621 -0.4880
12857SOL     OW40011   6.806   1.082   7.926  0.2773  0.1650  0.3690
12857SOL    HW140012   6.861   1.144   7.973 -1.4074  1.8114  0.2832
12857SOL    HW240013   6.754   1.136   7.867 -0.0851 -1.5212 -0.9296
12858SOL     OW40014   4.805   3.667  10.492 -0.1048 -0.0897 -0.1340
12858SOL    HW140015   4.812   3.762  10.478 -1.6313  0.0168 -0.3094
12858SOL    HW240016   4.806   3.630  10.404 -1.7889 -0.0329 -0.2097
12859SOL     OW40017   2.564   6.551   0.598  0.3173 -0.0842  0.4649
12859SOL    HW140018   2.492   6.487   0.594 -0.0713  0.3869 -0.3989
12859SOL    HW240019   2.610   6.530   0.680 -0.2075 -1.0269  0.5378
12860SOL     OW40020   4.879   7.669  12.113  0.3003  0.3006 -0.7084
12860SOL    HW140021   4.960   7.639  12.154 -0.3848  0.2991  0.7016
12860SOL    HW240022   4.811   7.617  12.155 -0.4007 -0.1326 -2.3108
12861SOL     OW40023   1.134   0.813   7.131  0.0688 -0.0036  0.3033
12861SOL    HW140024   1.206   0.752   7.115  0.7932  0.9236 -0.0564
12861SOL    HW240025   1.151   0.847   7.219  0.3002  0.5051  0.0667
12862SOL     OW40026   4.100   7.259   9.250  0.0686  0.2566 -0.4731
12862SOL    HW140027   4.144   7.260   9.165  0.1091  1.3143 -0.4495
12862SOL    HW240028   4.134   7.336   9.296  0.5349 -0.6573  0.7634
12863SOL     OW40029   2.840   7.162   2.566 -0.0016  0.4044 -0.2749
12863SOL    HW140030   2.795   7.246   2.562  0.6829  0.7773 -0.2906
12863SOL    HW240031   2.933   7.185   2.568  0.1805 -0.3419  0.0217
12864SOL     OW40032   4.432   1.864   3.777 -0.4610 -0.2472 -0.7737
12864SOL    HW140033   4.395   1.863   3.866  2.0568 -1.9744  0.3773
12864SOL    HW240034   4.399   1.945   3.738 -1.7037  0.5477  1.7001
12865SOL     OW40035   3.022   5.503   4.830  0.1851  0.4539 -0.9921
12865SOL    HW140036   3.073   5.504   4.911  1.0511 -0.2664 -1.5077
12865SOL    HW240037   2.944   5.453   4.852  0.3753  0.3304 -0.5800
12866SOL     OW40038   3.527   5.605   6.586  0.2752  0.1420 -0.4309
12866SOL    HW140039   3.517   5.512   6.605 -0.5775  0.3577  0.2179
12866SOL    HW240040   3.590   5.636   6.651  0.4823  0.0384 -0.5826
12867SOL     OW40041   3.402   2.537   3.394 -0.1020  0.1994  0.3986
12867SOL    HW140042   3.387   2.444   3.407  0.2591 -0.4084 -2.7252
12867SOL    HW240043   3.495   2.545   3.376 -0.0445  1.2555  1.0207
12868SOL     OW40044   5.397   2.260   8.987  0.2319  0.8360  0.2075
12868SOL    HW140045   5.304   2.271   8.967  0.5212  2.1073 -0.5496
12868SOL    HW240046   5.402   2.276   9.082 -0.2043  1.7281  0.0970
12869SOL     OW40047   2.314   3.016   6.737 -0.3894 -0.0566  0.4800
12869SOL    HW140048   2.232   2.976   6.707 -1.5902  1.8408  1.0479
12869SOL    HW240049   2.336   2.968   6.817 -0.4032 -1.2013 -0.1767
12870SOL     OW40050   6.224   6.709   6.800 -0.0949 -0.0747  0.8284
12870SOL    HW140051   6.216   6.637   6.862  0.4604  0.3867  1.4421
12870SOL    HW240052   6.298   6.684   6.744 -0.6390 -0.5233  0.2963
12871SOL     OW40053   6.980   5.983  11.923  0.5238  0.4333  0.0671
12871SOL    HW140054   6.908   6.039  11.954  0.7611  1.6079 -1.3954
12871SOL    HW240055   7.056   6.041  11.920  0.9864 -0.1928 -0.6238
12872SOL     OW40056   1.865   2.934   3.428  0.9722  0.4123 -0.0588
12872SOL    HW140057   1.781   2.935   3.474  1.7892  0.4535  1.5142
12872SOL    HW240058   1.862   3.012   3.372  0.5474  1.2985  1.1343
12873SOL     OW40059   0.234   6.066  10.911  0.0698 -0.2233 -0.6811
12873SOL    HW140060   0.286   6.012  10.970  1.2641  1.5011 -0.0772
12873SOL    HW240061   0.144   6.057  10.943  0.5824  0.0545  0.9418
12874SOL     OW40062   6.811   7.011   8.694  0.1590 -0.2029 -0.0816
12874SOL    HW140063   6.823   7.007   8.599  0.3897 -2.0033 -0.0175
12874SOL    HW240064   6.800   6.920   8.721 -1.0061  0.3419  1.4980
12875SOL     OW40065   7.399   6.251   3.318  0.5268  0.3578 -0.0156
12875SOL    HW140066   7.464   6.296   3.264  1.6296  1.0783  1.8249
12875SOL    HW240067   7.394   6.303   3.399 -1.6200 -0.2385  0.3090
12876SOL     OW40068   3.314   7.937   0.818  0.0524  0.6092  0.1723
12876SOL    HW140069   3.409   7.943   0.825  0.0112  0.0133  1.3759
12876SOL    HW240070   3.284   7.918   0.906 -1.1398  0.1348 -0.3155
12877SOL     OW40071   5.471   3.634   5.320 -0.5930 -0.0967 -0.5123
12877SOL    HW140072   5.421   3.554   5.303  2.7656 -2.1793 -1.4866
12877SOL    HW240073   5.482   3.636   5.415  1.7983 -2.5886 -0.6415
12878SOL     OW40074   1.565   3.719   8.640  0.1594 -0.3012 -0.2245
12878SOL    HW140075   1.540   3.670   8.562  2.7728 -0.2723 -1.1944
12878SOL    HW240076   1.616   3.657   8.692 -1.3676 -0.2543  1.4079
12879SOL     OW40077   5.909   4.094   5.522 -0.1483 -0.1321  0.8386
12879SOL    HW140078   5.903   4.150   5.445 -0.4765 -0.4254  0.6491
12879SOL    HW240079   5.935   4.008   5.488  2.3542  0.3530  1.3180
12880SOL     OW40080   4.124   2.928  12.239 -0.0526 -0.5907  0.5751
12880SOL    HW140081   4.176   2.870  12.296  0.7215  0.6546  1.1970
12880SOL    HW240082   4.072   2.981  12.300 -0.8579 -0.7215  0.0146
12881SOL     OW40083   0.808   0.583   4.006 -0.2179 -0.2353 -0.6869
12881SOL    HW140084   0.720   0.553   3.985  0.1601 -2.7193  0.8957
12881SOL    HW240085   0.794   0.667   4.050 -1.6938 -0.0523 -1.4423
12882SOL     OW40086   6.872   0.958  10.097 -0.9475  0.1493  0.0278
12882SOL    HW140087   6.817   0.909  10.036  0.1557  0.2420 -1.0798
12882SOL    HW240088   6.879   1.045  10.059 -0.8434  0.4365  0.6842
12883SOL     OW40089   7.377   6.183   0.949  0.4402 -0.2362  0.3248
12883SOL    HW140090   7.473   6.183   0.947  0.5687 -2.2093 -3.3205
12883SOL    HW240091   7.353   6.095   0.977 -0.0984 -0.8332 -1.7796
12884SOL     OW40092   4.586   5.888  10.146 -0.4877  0.2859 -0.5265
12884SOL    HW140093   4.580   5.972  10.100  0.6311  0.3689 -0.5315
12884SOL    HW240094   4.567   5.909  10.238 -0.8778  0.4215 -0.6352
12885SOL     OW40095   5.938   4.291  10.795 -0.1305  0.4014  0.0188
12885SOL    HW140096   5.933   4.199  10.821 -1.4085 -0.2573 -2.3539
12885SOL    HW240097   5.983   4.290  10.711  0.2331  2.0206  0.1592
12886SOL     OW40098   4.226   5.703   6.781  0.0338  0.7875  0.0876
12886SOL    HW140099   4.215   5.796   6.765  0.9114  1.0361  0.7875
12886SOL    HW240100   4.305   5.679   6.731 -0.2347  0.3993 -0.1574
12887SOL     OW40101   6.755   6.842  11.278  0.1374  0.4794 -0.4526
12887SOL    HW140102   6.721   6.913  11.224  0.7943  2.9552  2.1414
12887SOL    HW240103   6.850   6.858  11.283 -0.1622  2.2435  3.6174
12888SOL     OW40104   3.786   5.716   5.942  0.1368 -0.1168 -0.3128
12888SOL    HW140105   3.880   5.710   5.923  0.4789  0.1527  1.1807
12888SOL    HW240106   3.759   5.797   5.899  0.5697 -0.2228 -0.8042
12889SOL     OW40107   4.695   0.916  12.244 -0.0294  0.0220 -0.6190
12889SOL    HW140108   4.691   0.978  12.172  0.0960 -0.1955 -0.8150
12889SOL    HW240109   4.623   0.941  12.302 -2.0689 -1.6150 -2.2857
12890SOL     OW40110   3.625   7.026   1.591  0.4248 -0.7250 -0.0090
12890SOL    HW140111   3.536   7.061   1.590 -0.0687 -1.9324 -0.4000
12890SOL    HW240112   3.623   6.958   1.658  1.1471 -0.5732  0.1811
12891SOL     OW40113   1.914   0.367  10.229 -0.1301  0.0270 -0.2912
12891SOL    HW140114   1.827   0.374  10.267  0.3221 -0.7553  0.9758
12891SOL    HW240115   1.938   0.275  10.240  0.2645 -0.1055 -2.0034
12892SOL     OW40116   7.001   4.205  10.668  0.1251 -0.2686  0.5964
12892SOL    HW140117   6.974   4.117  10.642 -1.7789 -0.3607  2.6389
12892SOL    HW240118   7.070   4.228  10.605 -1.3567 -2.0117 -1.8422
12893SOL     OW40119   1.360   6.385  12.448  0.2565  0.1778  0.5768
12893SOL    HW140120   1.318   6.330  12.515  0.0478 -0.1032  0.2211
12893SOL    HW240121   1.453   6.384  12.472  0.1818  0.0903  0.8718
12894SOL     OW40122   3.553   6.741  10.801  0.0677  0.2372  0.3130
12894SOL    HW140123   3.496   6.788  10.740  1.5346  0.5377 -0.8970
12894SOL    HW240124   3.631   6.796  10.807 -0.2586  0.5510  3.0205
12895SOL     OW40125   2.575   6.984   6.381 -0.0167 -0.4984  0.4737
12895SOL    HW140126   2.617   6.931   6.313  0.3089  0.3391  0.0009
12895SOL    HW240127   2.509   7.036   6.334  0.5795  0.4895  0.6845
12896SOL     OW40128   0.644   3.807   5.596  0.0695  0.8816 -0.1007
12896SOL    HW140129   0.710   3.754   5.640  0.5371  1.6816  0.1599
12896SOL    HW240130   0.693   3.862   5.535 -0.6503 -1.1794 -2.7130
12897SOL     OW40131   7.158   5.749   1.176  0.0135 -0.0059  0.1831
12897SOL    HW140132   7.235   5.698   1.154 -0.3086 -0.6575  0.5477
12897SOL    HW240133   7.089   5.715   1.119 -0.3826 -0.4943  0.9394
12898SOL     OW40134   3.217   4.562   3.533 -0.1362 -0.0472 -0.8884
12898SOL    HW140135   3.229   4.468   3.544 -0.6731  0.0466  0.7807
12898SOL    HW240136   3.186   4.593   3.619  0.7495  1.7629 -1.1657
12899SOL     OW40137   7.079   4.499   8.582 -0.4260 -0.1877  0.0377
12899SOL    HW140138   7.092   4.433   8.650 -1.2690 -1.3939 -0.9264
12899SOL    HW240139   7.011   4.556   8.618 -1.0901 -0.9965  0.0851
12900SOL     OW40140   7.357   6.906  11.430  0.3066  0.0060 -0.1360
12900SOL    HW140141   7.412   6.833  11.402 -0.2393 -0.2803 -0.4742
12900SOL    HW240142   7.417   6.980  11.437  0.5276  0.0289 -1.7971
12901SOL     OW40143   0.893   7.144   8.824 -0.0715  0.4395  0.1951
12901SOL    HW140144   0.862   7.066   8.871  0.0807 -0.3004 -0.9088
12901SOL    HW240145   0.894   7.212   8.891 -0.8991 -0.3211  1.0228
12902SOL     OW40146   0.551   0.513   0.296  0.1204  0.2448  0.2788
12902SOL    HW140147   0.498   0.551   0.226  2.0618  3.0478  0.1958
12902SOL    HW240148   0.633   0.488   0.253 -0.3209 -2.3415  0.7552
12903SOL     OW40149   0.790   3.683  12.071  0.5595  0.4069  0.1976
12903SOL    HW140150   0.817   3.648  12.156 -2.1480 -1.1073  0.5443
12903SOL    HW240151   0.815   3.614  12.008  0.6059  0.5467  0.0635
12904SOL     OW40152   4.443   3.335   0.167 -0.4992  0.9454 -0.1164
12904SOL    HW140153   4.517   3.298   0.119 -0.0159  2.8706 -0.9610
12904SOL    HW240154   4.400   3.392   0.104 -1.9695  0.8477  0.7486
12905SOL     OW40155   2.679   7.700   7.070 -0.4193 -0.5604  0.2443
12905SOL    HW140156   2.650   7.747   6.991 -0.7818 -0.0667  0.6700
12905SOL    HW240157   2.732   7.764   7.118  0.6110 -1.1528 -0.0529
12906SOL     OW40158   7.234   0.556   3.348 -0.4105  0.0946  0.3261
12906SOL    HW140159   7.161   0.582   3.404 -1.2740 -2.1408  0.3385
12906SOL    HW240160   7.260   0.636   3.303 -1.3674  1.4051  2.0143
12907SOL     OW40161   7.686   6.213   5.895  0.0261  0.2874 -0.5816
12907SOL    HW140162   7.677   6.137   5.838 -0.8623  0.0725 -0.1719
12907SOL    HW240163   7.779   6.216   5.917 -0.1254 -1.4858  0.4737
12908SOL     OW40164   5.000   5.334  12.310 -0.8950 -0.7019  0.1760
12908SOL    HW140165   4.954   5.365  12.387 -0.8809 -1.9104  0.7001
12908SOL    HW240166   5.029   5.413  12.265 -0.5587  0.0334  1.6220
12909SOL     OW40167   7.119   2.569   1.903  0.1725  0.4594  0.2481
12909SOL    HW140168   7.049   2.593   1.842  0.6759 -0.9276 -0.9376
12909SOL    HW240169   7.173   2.647   1.910  0.7917  0.3165 -2.0840
12910SOL     OW40170   7.004   2.204  11.081 -0.1268 -0.7400  0.3527
12910SOL    HW140171   7.010   2.297  11.060 -0.9204 -0.7876 -0.1306
12910SOL    HW240172   6.988   2.161  10.997 -1.6371 -1.1182  0.8064
12911SOL     OW40173   4.376   6.542  10.102 -0.1275 -0.1813  0.2990
12911SOL    HW140174   4.371   6.450  10.073 -3.1345 -0.6271  1.8336
12911SOL    HW240175   4.371   6.593  10.021 -0.8830 -1.3925 -0.4548
12912SOL     OW40176   6.973   0.613  12.184  0.4983  0.1079  0.2730
12912SOL    HW140177   6.948   0.586  12.273  1.2748  0.3367  0.5658
12912SOL    HW240178   7.016   0.536  12.147  1.8705  0.6093  0.7752
12913SOL     OW40179   3.965   7.174   0.288 -0.1664  0.0422 -0.3164
12913SOL    HW140180   4.030   7.141   0.226 -0.6533 -1.4571 -0.0602
12913SOL    HW240181   3.908   7.231   0.235  0.3725  0.0652 -0.8830
12914SOL     OW40182   1.254   2.144   8.096  0.7761  0.9173  0.1676
12914SOL    HW140183   1.161   2.128   8.078  0.8456  1.4312 -0.7088
12914SOL    HW240184   1.254   2.206   8.169  0.4552  0.0925  0.8828
12915SOL     OW40185   1.648   2.207   7.891  0.3145  0.3179  0.3228
12915SOL    HW140186   1.677   2.120   7.862 -1.3630 -0.2113  0.1176
12915SOL    HW240187   1.587   2.236   7.823 -0.7624  0.7167  1.4208
12916SOL     OW40188   5.931   7.281   6.582  0.4988 -0.1737  0.2506
12916SOL    HW140189   5.892   7.290   6.495  0.6930  0.2027  0.2009
12916SOL    HW240190   5.925   7.369   6.620  2.5342  0.2371 -0.2739
12917SOL     OW40191   0.190   5.448   2.115  0.0919 -0.1892 -0.1511
12917SOL    HW140192   0.132   5.377   2.087  1.3374 -0.9090 -0.9808
12917SOL    HW240193   0.269   5.437   2.062  0.0728  2.2299 -0.7685
12918SOL     OW40194   1.554   6.240   8.619  0.2534  0.4316 -0.3558
12918SOL    HW140195   1.571   6.299   8.545  1.5165 -1.0405 -1.2854
12918SOL    HW240196   1.625   6.257   8.680  0.0553  0.5624 -0.1581
12919SOL     OW40197   5.723   1.312   0.456  0.3751  0.6494  0.0947
12919SOL    HW140198   5.703   1.391   0.406 -1.2014 -0.6751 -1.5069
12919SOL    HW240199   5.681   1.241   0.407  0.6109 -1.0281  2.1592
12920SOL     OW40200   6.534   6.281   5.411  0.0657  0.0103  0.2170
12920SOL    HW140201   6.579   6.340   5.471 -2.0701  0.7927  1.1340
12920SOL    HW240202   6.469   6.335   5.367 -1.5457 -1.4825  0.6349
12921SOL     OW40203   6.772   4.525   3.926 -0.0484  0.0667  0.2061
12921SOL    HW140204   6.708   4.535   3.997 -0.4088  0.2528 -0.1414
12921SOL    HW240205   6.740   4.583   3.857 -0.9157 -1.7573 -0.9798
12922SOL     OW40206   5.816   5.887   8.193  0.0448 -0.0333 -0.2911
12922SOL    HW140207   5.825   5.934   8.110  0.5184  1.4610  0.5618
12922SOL    HW240208   5.726   5.854   8.193 -0.2582  0.7562 -1.0050
12923SOL     OW40209   6.694   1.382   2.039 -0.1346 -0.6761  0.4289
12923SOL    HW140210   6.645   1.461   2.064  0.1371 -0.3193 -0.1310
12923SOL    HW240211   6.629   1.325   1.998 -0.0413 -0.0852 -0.5737
12924SOL     OW40212   6.439   7.678   3.666  0.0609  0.2565 -0.1908
12924SOL    HW140213   6.491   7.600   3.686  0.7768  1.0152  1.0390
12924SOL    HW240214   6.359   7.644   3.625  1.2024 -0.9857 -1.5316
12925SOL     OW40215   2.403   2.460   9.717  0.1698 -0.0045 -0.1927
12925SOL    HW140216   2.347   2.408   9.658 -0.1776  0.6725 -0.4738
12925SOL    HW240217   2.443   2.525   9.660  1.0637 -0.3229  0.0564
12926SOL     OW40218   6.668   5.767   8.866 -1.0826  0.1503  0.3511
12926SOL    HW140219   6.642   5.797   8.953 -0.1584 -2.7372  1.7705
12926SOL    HW240220   6.763   5.783   8.863 -1.0626 -0.0350  0.0247
12927SOL     OW40221   2.392   7.129   6.212  0.1158 -0.4067 -0.4710
12927SOL    HW140222   2.332   7.195   6.177  1.3678  0.4875 -1.0400
12927SOL    HW240223   2.414   7.074   6.136  1.3718  0.3757 -0.7073
12928SOL     OW40224   0.487   6.484   6.508 -0.0881  0.5073  0.0581
12928SOL    HW140225   0.517   6.429   6.435  0.4073 -1.3023  1.5373
12928SOL    HW240226   0.407   6.441   6.538 -0.7470  1.7147  0.0944
12929SOL     OW40227   5.683   2.694   8.378  0.3889  0.0217 -0.0252
12929SOL    HW140228   5.775   2.707   8.355  0.0596  1.4246 -0.6213
12929SOL    HW240229   5.648   2.639   8.308  0.2160  1.4611 -1.0919
12930SOL     OW40230   3.958   0.084   0.386 -0.0667 -0.2198  0.2328
12930SOL    HW140231   3.865   0.062   0.387  0.1701 -1.3164  1.2022
12930SOL    HW240232   3.961   0.178   0.405 -1.0582  0.4207 -2.3637
12931SOL     OW40233   5.349   7.105   0.644  0.0917  0.0184  0.6666
12931SOL    HW140234   5.364   7.143   0.731  2.0447 -0.7708  0.7406
12931SOL    HW240235   5.428   7.129   0.594 -1.1802  0.8211 -1.0616
12932SOL     OW40236   5.287   4.474   0.066  0.1239 -0.5653 -0.0661
12932SOL    HW140237   5.362   4.417   0.048  1.5164  0.7395  1.2070
12932SOL    HW240238   5.281   4.532  -0.010  1.2506  0.1338  0.3503
12933SOL     OW40239   0.057   3.529  10.424 -0.4399 -0.3731  0.3232
12933SOL    HW140240   0.054   3.434  10.432 -0.6908 -0.2267  2.2988
12933SOL    HW240241  -0.003   3.561  10.491  0.3586  1.2060  0.3267
12934SOL     OW40242   4.304   5.691   1.035  0.2327 -0.4553 -0.6169
12934SOL    HW140243   4.323   5.721   0.946  2.3420 -0.2726 -0.1768
12934SOL    HW240244   4.291   5.772   1.085 -0.6148 -0.5445 -0.6880
12935SOL     OW40245   3.492   0.160   3.352 -0.0526  0.3192 -0.3397
12935SOL    HW140246   3.492   0.064   3.355  1.1395  0.2677 -1.0893
12935SOL    HW240247   3.555   0.186   3.419 -0.9901  0.6254  0.4397
12936SOL     OW40248   2.357   0.731   0.103  0.4204  0.1012 -0.4912
12936SOL    HW140249   2.343   0.804   0.043  1.1343  1.7114  1.2159
12936SOL    HW240250   2.270   0.692   0.113 -0.0581  0.9670 -1.1092
12937SOL     OW40251   4.941   0.938   4.457  0.2333  0.8520  0.3942
12937SOL    HW140252   4.849   0.920   4.477  0.3578  1.5510  1.7182
12937SOL    HW240253   4.940   1.022   4.410  0.0951  0.1048 -1.0029
12938SOL     OW40254   4.390   4.340   2.090 -0.0549  0.5114 -0.6908
12938SOL    HW140255   4.430   4.426   2.105  0.0090  0.5845 -1.2771
12938SOL    HW240256   4.450   4.278   2.132 -0.4634  0.8065  0.3547
12939SOL     OW40257   1.131   2.537  12.397  0.1828 -0.6528 -0.0425
12939SOL    HW140258   1.163   2.592  12.468  0.7355  0.0936 -0.8500
12939SOL    HW240259   1.114   2.452  12.438 -1.3455  0.2812  1.3669
12940SOL     OW40260   7.924   3.725   9.700  0.0420  0.0443  0.2295
12940SOL    HW140261   7.918   3.667   9.776 -0.5706 -0.3985 -0.1430
12940SOL    HW240262   7.937   3.665   9.626 -1.9322  0.2547 -0.3389
12941SOL     OW40263   5.224   4.105  10.396 -0.2447 -0.5038  0.0368
12941SOL    HW140264   5.306   4.082  10.352 -1.4896 -2.1735 -1.5871
12941SOL    HW240265   5.215   4.041  10.466  0.0713  0.0059  0.5520
12942SOL     OW40266   1.237   3.325   5.836 -0.0468  0.4056 -0.2995
12942SOL    HW140267   1.330   3.309   5.817 -0.3357 -0.3430 -1.1581
12942SOL    HW240268   1.212   3.255   5.896 -0.6039 -0.7724 -1.8450
12943SOL     OW40269   5.527   2.703  11.496  0.1987 -0.6383 -0.2263
12943SOL    HW140270   5.566   2.617  11.512  1.1967 -0.3946 -1.2144
12943SOL    HW240271   5.553   2.755  11.572  1.0132 -0.7469 -0.4265
12944SOL     OW40272   5.598   4.471   7.724 -0.6495  0.4990  0.2214
12944SOL    HW140273   5.570   4.527   7.652  0.6541 -0.8790 -1.4631
12944SOL    HW240274   5.693   4.483   7.728 -0.5889 -0.1358  1.1140
12945SOL     OW40275   2.274   6.808   6.229 -0.0697  0.7155  0.1424
12945SOL    HW140276   2.341   6.740   6.228 -0.0997  0.6152 -2.6843
12945SOL    HW240277   2.230   6.800   6.144 -2.4277  1.9897  1.1522
12946SOL     OW40278   0.901   4.717  11.111  0.0108 -0.1959 -0.3357
12946SOL    HW140279   0.887   4.807  11.142 -2.1231 -0.4101 -0.5222
12946SOL    HW240280   0.988   4.718  11.072 -0.9093  2.4727 -2.6098
12947SOL     OW40281   6.990   4.636   0.219  0.2115 -0.3074  0.1802
12947SOL    HW140282   6.973   4.544   0.202 -1.6370  0.0492 -0.1468
12947SOL    HW240283   6.955   4.682   0.143  2.0014  0.6418 -0.1444
12948SOL     OW40284   4.133   0.487   4.730 -0.3484  0.0185  0.1974
12948SOL    HW140285   4.095   0.437   4.658 -0.5104 -0.8948  0.8939
12948SOL    HW240286   4.218   0.445   4.746  0.0044  0.6715  0.0677
12949SOL     OW40287   4.732   1.129   4.896 -0.2796 -0.3163 -0.5578
12949SOL    HW140288   4.667   1.177   4.845 -1.1481  0.3666  1.1021
12949SOL    HW240289   4.764   1.192   4.960 -0.9603 -1.6911  1.2591
12950SOL     OW40290   4.278   6.845   4.878 -0.1852 -0.4467  0.2666
12950SOL    HW140291   4.308   6.796   4.954  0.2962 -1.4672 -0.5560
12950SOL    HW240292   4.185   6.863   4.895 -0.3969 -1.7441  0.5354
12951SOL     OW40293   7.123   6.954   6.449  0.1067 -0.1670 -0.2143
12951SOL    HW140294   7.186   6.887   6.423  0.1379 -0.1337 -0.2227
12951SOL    HW240295   7.155   7.035   6.410  1.0972  0.2410  1.3642
12952SOL     OW40296   4.012   5.822   3.786  0.0857 -0.4410  0.0841
12952SOL    HW140297   3.973   5.740   3.817  0.1905 -1.1692 -1.5898
12952SOL    HW240298   3.941   5.867   3.741  0.5895 -0.7389 -1.0494
12953SOL     OW40299   2.493   7.201   6.873 -0.1146  0.4843  0.4478
12953SOL    HW140300   2.537   7.280   6.842  1.1485 -1.2887 -2.7394
12953SOL    HW240301   2.547   7.129   6.840 -4.1808 -1.8430 -2.0539
12954SOL     OW40302   2.296   2.325  11.159 -0.5465 -0.0643 -0.2482
12954SOL    HW140303   2.231   2.305  11.226 -1.4906  1.2115 -0.7285
12954SOL    HW240304   2.254   2.302  11.076  0.0761 -0.3272 -0.5005
12955SOL     OW40305   5.213   3.614   4.907  0.2582  0.4729  0.1776
12955SOL    HW140306   5.210   3.543   4.843 -0.6071 -0.2202  0.9720
12955SOL    HW240307   5.298   3.656   4.892  0.1499  0.2263 -1.3007
12956SOL     OW40308   6.550   0.492   4.422 -0.4863  0.3746 -0.5708
12956SOL    HW140309   6.594   0.562   4.373  0.6154  0.0593 -0.0583
12956SOL    HW240310   6.548   0.524   4.513  1.3003 -0.8179 -0.0588
12957SOL     OW40311   4.128   3.412  10.351 -0.2616  0.2669  0.0337
12957SOL    HW140312   4.050   3.459  10.380 -1.2467 -1.1138 -0.2978
12957SOL    HW240313   4.197   3.479  10.349 -1.1599  1.2842  1.3885
12958SOL     OW40314   3.388   3.986   2.329 -0.4926 -0.5808  0.4489
12958SOL    HW140315   3.476   4.005   2.295  0.5933 -0.4060  3.1643
12958SOL    HW240316   3.372   3.895   2.304  1.1443 -1.1165  1.2005
12959SOL     OW40317   6.351   6.351   5.967 -0.0647 -0.9003 -0.5021
12959SOL    HW140318   6.326   6.422   6.025 -0.2711 -0.2294 -1.3928
12959SOL    HW240319   6.394   6.287   6.024  1.1420  0.4395  0.1374
12960SOL     OW40320   0.678   5.625   2.771  0.5368  0.8665 -0.2480
12960SOL    HW140321   0.766   5.608   2.736 -0.2391 -1.9254 -1.1140
12960SOL    HW240322   0.637   5.683   2.706  1.2652  1.0449 -0.5551
12961SOL     OW40323   6.459   0.012   8.193  0.2369  0.2492  0.2935
12961SOL    HW140324   6.527   0.071   8.163 -0.4364  0.5620 -0.6438
12961SOL    HW240325   6.456  -0.057   8.127 -0.5096  0.3647  0.2028
12962SOL     OW40326   5.730   0.755   5.803  0.3992  0.2997 -0.1876
12962SOL    HW140327   5.795   0.816   5.839  0.7784 -0.4995  0.4907
12962SOL    HW240328   5.775   0.714   5.729  0.7032 -0.3314  0.3478
12963SOL     OW40329   3.079   4.810   6.305  0.0804  0.4832 -0.2105
12963SOL    HW140330   3.040   4.821   6.218 -0.1406 -0.6689 -0.2751
12963SOL    HW240331   3.073   4.716   6.322  2.1122  0.3692  0.1287
12964SOL     OW40332   3.684   0.299   2.906  0.0744  0.4150  0.3123
12964SOL    HW140333   3.598   0.268   2.932 -0.2877  1.1700  0.0478
12964SOL    HW240334   3.690   0.278   2.812  0.3522 -0.0083  0.4195
12965SOL     OW40335   2.593   3.955   2.633  0.5702  0.3435 -0.2296
12965SOL    HW140336   2.664   3.962   2.696  1.3091 -1.6193 -0.7799
12965SOL    HW240337   2.636   3.930   2.551 -0.7630 -1.2628 -0.4836
12966SOL     OW40338   1.186   0.855   3.092  1.0381 -0.0305 -0.1093
12966SOL    HW140339   1.090   0.854   3.083  0.9964  1.2078  0.0113
12966SOL    HW240340   1.202   0.881   3.183  1.4902  0.0042 -0.1952
12967SOL     OW40341   5.376   7.073   0.272 -0.4048 -0.0809 -0.6028
12967SOL    HW140342   5.439   7.031   0.331  0.8284 -0.0011 -1.8195
12967SOL    HW240343   5.341   7.000   0.219 -0.5773  0.0141 -0.6199
12968SOL     OW40344   2.584   0.018  10.115 -0.3610  0.0633 -0.0434
12968SOL    HW140345   2.556  -0.040  10.045  0.3255 -1.1123  0.6206
12968SOL    HW240346   2.512   0.081  10.125 -0.7340 -0.1274 -1.3519
12969SOL     OW40347   4.858   6.595   2.970 -0.4924 -0.1367 -0.3421
12969SOL    HW140348   4.805   6.537   2.915 -0.5094 -0.3528 -0.1000
12969SOL    HW240349   4.939   6.606   2.922 -0.5809 -0.1742 -0.5000
12970SOL     OW40350   4.179   3.803  10.266  0.3171 -0.1673 -0.3480
12970SOL    HW140351   4.227   3.884  10.284  0.0429  0.2825 -1.5718
12970SOL    HW240352   4.237   3.734  10.299  0.6848  0.4959  0.4489
12971SOL     OW40353   1.429   2.359   5.501  0.1648 -0.0783  0.4576
12971SOL    HW140354   1.431   2.276   5.453  0.0888 -0.4528  1.0920
12971SOL    HW240355   1.462   2.337   5.588 -0.8229  0.3350  0.9538
12972SOL     OW40356   2.288   4.490  12.229 -0.4071 -0.1309  0.2310
12972SOL    HW140357   2.244   4.561  12.275  1.4133  1.5986 -0.5479
12972SOL    HW240358   2.269   4.506  12.137  1.6218  0.6198 -0.1248
12973SOL     OW40359   4.201   0.708   4.604 -0.2075 -0.0466 -0.7991
12973SOL    HW140360   4.155   0.629   4.632 -0.5126  0.7877  1.2607
12973SOL    HW240361   4.132   0.768   4.574 -0.4518  0.8448  1.3747
12974SOL     OW40362   7.652   0.935   1.302  0.1696 -0.6726  0.0853
12974SOL    HW140363   7.663   0.939   1.397 -0.8705 -4.0412  0.5046
12974SOL    HW240364   7.736   0.904   1.269 -0.1087 -1.5886  0.2057
12975SOL     OW40365   4.241   3.905   2.710  0.9930  0.1400  0.3747
12975SOL    HW140366   4.246   3.810   2.715 -1.3669 -0.0280  0.3948
12975SOL    HW240367   4.293   3.928   2.633  0.2816 -1.3103 -0.5760
12976SOL     OW40368   6.015   6.449   6.513  0.0170 -0.5180 -0.4953
12976SOL    HW140369   6.015   6.416   6.603 -1.3544  0.2397 -0.1788
12976SOL    HW240370   5.944   6.514   6.512  1.7505  1.4681 -1.4291
12977SOL     OW40371   1.833   2.104   8.124 -0.1940  0.5109  0.1735
12977SOL    HW140372   1.903   2.119   8.187  0.9215 -1.8600 -0.3677
12977SOL    HW240373   1.853   2.163   8.051 -0.4151  1.8879  1.1885
12978SOL     OW40374   4.413   4.072   0.682 -0.3760  0.2580 -0.3834
12978SOL    HW140375   4.493   4.120   0.660 -0.6830  0.9805  0.0398
12978SOL    HW240376   4.356   4.137   0.723 -1.2358 -0.2182 -0.7913
12979SOL     OW40377   0.042   1.139   1.407 -1.2709 -0.2195  0.2698
12979SOL    HW140378   0.067   1.104   1.322 -3.8541 -1.4451 -0.0933
12979SOL    HW240379   0.062   1.069   1.470  0.1522  0.4852  0.6442
12980SOL     OW40380   4.417   4.914   3.418 -0.1415  0.1803 -0.5483
12980SOL    HW140381   4.461   4.835   3.451 -0.7770 -0.0107 -0.1450
12980SOL    HW240382   4.407   4.969   3.496  2.4858  1.7467 -1.2130
12981SOL     OW40383   7.833   4.860  10.385  0.6031 -0.1167  0.2044
12981SOL    HW140384   7.861   4.943  10.424 -0.1186  0.9855 -1.4849
12981SOL    HW240385   7.908   4.802  10.396  0.9834  0.6346  1.7595
12982SOL     OW40386   6.817   7.340   0.703 -0.4352 -0.5869 -0.8290
12982SOL    HW140387   6.741   7.314   0.651  0.7080 -2.4963 -1.6198
12982SOL    HW240388   6.784   7.345   0.793 -1.7933  0.0106 -1.3338
12983SOL     OW40389   6.063   4.896   1.170 -0.0573  0.2730  0.3478
12983SOL    HW140390   6.072   4.908   1.265 -2.1724  0.0519  0.6288
12983SOL    HW240391   6.114   4.967   1.132 -2.2583  2.7934  1.7461
12984SOL     OW40392   1.378   6.114   0.162  0.2568 -0.0736 -0.3291
12984SOL    HW140393   1.434   6.104   0.085 -0.7592  0.5153 -1.1663
12984SOL    HW240394   1.422   6.181   0.215  1.1000 -0.6772 -0.2487
12985SOL     OW40395   2.052   0.851   0.378 -0.1509  0.8641  0.1877
12985SOL    HW140396   2.070   0.763   0.411 -2.3533 -0.2105 -1.1836
12985SOL    HW240397   2.021   0.900   0.455 -0.8550 -0.1982  0.6088
12986SOL     OW40398   7.609   3.515   5.126  0.4622 -0.3198  0.5724
12986SOL    HW140399   7.550   3.558   5.189  0.3613 -2.0233  1.7129
12986SOL    HW240400   7.668   3.463   5.181 -0.4245 -2.8757 -0.7417
12987SOL     OW40401   1.781   2.465   0.098  0.1530 -0.1247 -0.7758
12987SOL    HW140402   1.768   2.515   0.179  1.6762 -0.3107 -0.3859
12987SOL    HW240403   1.820   2.528   0.037  1.0861 -0.5500 -0.6302
12988SOL     OW40404   1.207   3.342  10.293  0.4187 -0.8302  0.5118
12988SOL    HW140405   1.199   3.422  10.346  0.0690 -0.5572  0.0501
12988SOL    HW240406   1.297   3.344  10.261 -0.4744  1.1923 -2.3143
12989SOL     OW40407   1.218   7.466   3.618 -0.4356 -0.1899  0.1256
12989SOL    HW140408   1.289   7.513   3.663 -1.1388  0.1266  0.9333
12989SOL    HW240409   1.216   7.505   3.531 -0.8500  1.1471  0.7080
12990SOL     OW40410   2.100   7.163   1.625 -0.3602 -0.0733 -0.7702
12990SOL    HW140411   2.062   7.243   1.661  0.3878  0.2649 -0.7229
12990SOL    HW240412   2.156   7.193   1.553  0.4824 -0.4850 -0.2984
12991SOL     OW40413   1.699   2.182   0.367 -0.5446 -0.2899 -0.0216
12991SOL    HW140414   1.765   2.126   0.326  0.4185  1.0920 -0.4612
12991SOL    HW240415   1.746   2.264   0.384 -1.3996 -0.2217  2.2806
12992SOL     OW40416   7.443   7.402   1.084 -0.1847  0.4490  0.3976
12992SOL    HW140417   7.359   7.447   1.087 -0.4171  0.2454 -1.7073
12992SOL    HW240418   7.503   7.465   1.046  0.5218  0.4087  1.4045
12993SOL     OW40419   3.172   5.736   1.509 -0.3400  0.2186  0.0941
12993SOL    HW140420   3.117   5.660   1.488 -0.3239  0.0773  0.5438
12993SOL    HW240421   3.206   5.717   1.596 -1.2610  1.2673  0.7065
12994SOL     OW40422   0.060   2.332   8.675  0.1549  0.8580  0.2355
12994SOL    HW140423   0.075   2.316   8.769  0.0229 -1.2482 -0.0585
12994SOL    HW240424   0.135   2.293   8.631 -0.9532 -0.3664 -0.6487
12995SOL     OW40425   1.674   7.536  11.065 -0.5414 -1.0160 -0.2170
12995SOL    HW140426   1.615   7.580  11.005 -0.1175 -0.8173 -0.4937
12995SOL    HW240427   1.629   7.540  11.150  1.3715  4.2437  0.9878
12996SOL     OW40428   1.614   0.836  11.526  0.4769  0.1356 -0.6219
12996SOL    HW140429   1.659   0.797  11.452  1.1523 -0.2282 -0.0304
12996SOL    HW240430   1.536   0.878  11.488  0.6709 -0.2759 -1.4869
12997SOL     OW40431   7.133   7.768   6.060 -0.2443 -0.6497  0.0969
12997SOL    HW140432   7.084   7.697   6.018 -2.3527  1.1019 -0.6042
12997SOL    HW240433   7.124   7.842   6.000 -0.1767  0.9045  1.9032
12998SOL     OW40434   5.474   3.401   8.521 -0.0355 -0.5253  0.4836
12998SOL    HW140435   5.487   3.422   8.428 -0.7390 -1.0553  0.2606
12998SOL    HW240436   5.521   3.318   8.534  1.3734  0.3093  0.9839
12999SOL     OW40437   3.426   5.714  11.692 -0.3373 -0.0182  0.1816
12999SOL    HW140438   3.341   5.744  11.659 -1.0816 -1.9290  0.2545
12999SOL    HW240439   3.404   5.658  11.767  0.7866 -2.4370 -1.1725
13000SOL     OW40440   3.531   6.039   9.521 -0.1550 -0.0223  0.7523
13000SOL    HW140441   3.454   6.049   9.465  0.6867 -0.2321 -0.4736
13000SOL    HW240442   3.497   5.999   9.601 -1.4173  0.4755  0.4864
13001SOL     OW40443   0.935   4.104   6.531  0.0223 -0.1069  0.2246
13001SOL    HW140444   0.874   4.071   6.465  0.2915  1.5100 -0.8822
13001SOL    HW240445   1.021   4.102   6.488  0.1083  1.5710  0.2595
13002SOL     OW40446   5.160   4.391   8.439 -0.6082 -0.2298  0.3822
13002SOL    HW140447   5.121   4.450   8.374  0.0474 -1.0011 -0.7481
13002SOL    HW240448   5.223   4.445   8.486 -0.2354  0.0548 -0.4349
13003SOL     OW40449   0.256   3.773   5.714  0.8780 -0.1861  0.3179
13003SOL    HW140450   0.189   3.738   5.656 -0.6324 -2.3747  3.1484
13003SOL    HW240451   0.335   3.724   5.692  0.4894 -0.5625 -0.2503
13004SOL     OW40452   3.249   4.365   8.443  0.8072 -0.1925 -0.1681
13004SOL    HW140453   3.289   4.417   8.513 -0.4186 -1.2385  1.3842
13004SOL    HW240454   3.278   4.407   8.362  2.4831  0.9195  0.9446
13005SOL     OW40455   2.906   1.500   0.507  0.4719 -0.3284  0.3276
13005SOL    HW140456   2.935   1.527   0.420  0.5611 -2.3364 -0.3126
13005SOL    HW240457   2.817   1.469   0.494  0.0119  0.5419  1.2285
13006SOL     OW40458   6.607   3.935   9.772  0.0991  0.1205 -0.3552
13006SOL    HW140459   6.627   3.911   9.862 -0.3283  1.3665  0.0840
13006SOL    HW240460   6.513   3.919   9.763  0.4230 -1.6670 -1.1406
13007SOL     OW40461   2.481   0.897   9.021 -0.0430 -0.2401 -0.1228
13007SOL    HW140462   2.411   0.862   8.967 -0.5746 -0.3015  0.5820
13007SOL    HW240463   2.553   0.835   9.011 -0.8101 -1.3265  0.7531
13008SOL     OW40464   3.289   0.700   8.200 -0.2964  0.0648  0.2325
13008SOL    HW140465   3.218   0.696   8.136  0.0060 -0.4483 -0.0747
13008SOL    HW240466   3.335   0.782   8.179  1.3096 -1.2623 -1.8543
13009SOL     OW40467   1.057   6.465   9.708  0.4066  0.6996  0.5182
13009SOL    HW140468   1.128   6.408   9.739  0.7504  0.3927 -0.7757
13009SOL    HW240469   0.977   6.419   9.731  0.5426  1.5050  2.8876
13010SOL     OW40470   2.328   3.500   4.689  0.3306  0.1763 -0.1428
13010SOL    HW140471   2.393   3.570   4.691  0.9704 -0.3311 -1.6177
13010SOL    HW240472   2.352   3.442   4.761  1.3085  0.1937 -0.4388
13011SOL     OW40473   7.736   0.062   5.026  0.0941 -0.1527 -0.3041
13011SOL    HW140474   7.667   0.010   4.985  1.5920  0.1698 -3.6048
13011SOL    HW240475   7.695   0.147   5.042 -0.0203  0.6365 -3.8760
13012SOL     OW40476   3.378   1.920   7.176 -0.1335 -0.1615 -0.1783
13012SOL    HW140477   3.359   1.886   7.264  0.1076  2.0992  0.8202
13012SOL    HW240478   3.461   1.967   7.186 -0.6648  1.0837 -1.3186
13013SOL     OW40479   6.580   2.057   7.160 -0.4325 -0.4274 -0.2803
13013SOL    HW140480   6.596   2.008   7.241  2.0317  1.3811  0.4132
13013SOL    HW240481   6.490   2.088   7.169 -0.0340  0.2398  2.1037
13014SOL     OW40482   5.484   3.779   8.642 -0.0982  0.3445  0.2997
13014SOL    HW140483   5.481   3.747   8.552 -1.3242  2.5473 -0.5150
13014SOL    HW240484   5.558   3.733   8.681 -1.5678 -3.2791 -0.7398
13015SOL     OW40485   6.043   3.220   9.393  0.3355 -0.1205 -0.0739
13015SOL    HW140486   6.078   3.302   9.359 -2.3359  1.9706  1.7534
13015SOL    HW240487   6.063   3.222   9.487 -1.5227 -0.4991  0.3703
13016SOL     OW40488   7.618   0.847   2.297  0.0261 -0.0858 -0.2949
13016SOL    HW140489   7.676   0.921   2.313 -0.7827  0.0910  2.3164
13016SOL    HW240490   7.536   0.887   2.267  0.1294 -0.0643 -0.5506
13017SOL     OW40491   6.504   7.400   7.945 -0.2261  0.1828  0.3504
13017SOL    HW140492   6.476   7.314   7.976  2.7700 -0.4813  1.5454
13017SOL    HW240493   6.570   7.382   7.878 -1.5755  1.6366 -1.4912
13018SOL     OW40494   5.792   2.211   2.902 -0.2208 -0.2189  0.5825
13018SOL    HW140495   5.759   2.195   2.814  0.4304  0.5251  0.1916
13018SOL    HW240496   5.714   2.221   2.956 -0.6381  0.9135 -0.2084
13019SOL     OW40497   4.793   6.217   6.148  0.0226 -0.6694 -0.0438
13019SOL    HW140498   4.784   6.125   6.121 -0.5750 -0.6587  0.0934
13019SOL    HW240499   4.708   6.256   6.126  0.2250 -0.1799  0.0273
13020SOL     OW40500   6.203   5.840  11.767 -0.2225  0.0054 -0.0821
13020SOL    HW140501   6.265   5.848  11.694 -1.2651 -2.2463 -1.3353
13020SOL    HW240502   6.119   5.822  11.724 -0.8254 -1.6631  1.6694
13021SOL     OW40503   2.601   6.248   3.634  0.0984 -0.1379  0.0463
13021SOL    HW140504   2.619   6.225   3.542  0.8942  1.2565 -0.1837
13021SOL    HW240505   2.687   6.244   3.676 -0.3907 -1.7047  1.0013
13022SOL     OW40506   0.390   3.827  11.434 -0.0847  0.3364 -0.1871
13022SOL    HW140507   0.421   3.917  11.442  1.1128 -0.0290 -0.5130
13022SOL    HW240508   0.389   3.794  11.524 -1.1993  0.8768  0.0111
13023SOL     OW40509   0.002   0.221   1.787  0.1537  0.3248  0.0858
13023SOL    HW140510  -0.055   0.144   1.789  0.8560 -0.2059  2.0221
13023SOL    HW240511  -0.036   0.279   1.853  1.0988  0.5142  0.4772
13024SOL     OW40512   5.324   7.443   0.514 -0.2602  0.2944 -0.0490
13024SOL    HW140513   5.416   7.468   0.524  0.2900 -1.4084 -0.6467
13024SOL    HW240514   5.326   7.349   0.498 -2.2344 -0.1641  1.9434
13025SOL     OW40515   1.285   0.278  11.937  0.0932 -0.6268  0.5182
13025SOL    HW140516   1.351   0.347  11.947  0.2936 -0.8549  0.7873
13025SOL    HW240517   1.326   0.215  11.877  0.2757 -0.9571  0.9844
13026SOL     OW40518   5.199   7.520   6.392  0.1289  0.1915 -0.2755
13026SOL    HW140519   5.119   7.474   6.419  0.6934 -1.3015 -1.0246
13026SOL    HW240520   5.224   7.571   6.469  0.2166 -1.8433  1.1278
13027SOL     OW40521   5.373   1.670   7.534 -0.1297 -0.1976  0.5083
13027SOL    HW140522   5.392   1.742   7.474 -2.1127 -0.7156 -0.8619
13027SOL    HW240523   5.324   1.710   7.606 -2.2598 -0.2321 -0.8176
13028SOL     OW40524   1.951   6.008   1.588 -0.0264  0.5563 -0.4003
13028SOL    HW140525   1.895   6.001   1.511  0.0898  1.0531 -0.5365
13028SOL    HW240526   2.035   6.039   1.554  0.4411 -0.5197 -0.2383
13029SOL     OW40527   7.915   6.344  10.158 -0.2806 -0.4232  0.1377
13029SOL    HW140528   7.957   6.420  10.197 -0.9864  0.2261 -0.3341
13029SOL    HW240529   7.839   6.327  10.215  0.4094 -1.3952  0.8086
13030SOL     OW40530   7.386   6.355   9.366  0.3566 -0.2751  0.6848
13030SOL    HW140531   7.370   6.288   9.299  1.2322 -1.1765  1.3454
13030SOL    HW240532   7.340   6.432   9.334  0.8012 -0.6573 -1.0053
13031SOL     OW40533   2.864   5.163   3.725 -0.0155 -0.4874  0.0796
13031SOL    HW140534   2.955   5.188   3.743 -0.3481  0.0423  1.1299
13031SOL    HW240535   2.851   5.182   3.632  0.5808  0.6176  0.2127
13032SOL     OW40536   0.395   4.307  10.347 -0.3597  0.0436 -0.5727
13032SOL    HW140537   0.314   4.299  10.297 -0.5672 -1.2409 -0.0740
13032SOL    HW240538   0.404   4.223  10.392  0.6725  0.5765  0.2638
13033SOL     OW40539   7.900   0.444  11.452 -0.2040 -0.1261 -0.4071
13033SOL    HW140540   7.983   0.432  11.405  1.8641  1.7375  2.4310
13033SOL    HW240541   7.856   0.360  11.444  1.0609 -0.6455 -3.5225
13034SOL     OW40542   6.818   4.261   5.101 -0.0601 -0.4981  0.2643
13034SOL    HW140543   6.850   4.312   5.176 -1.3195 -0.5205  0.8478
13034SOL    HW240544   6.739   4.306   5.073 -1.8151 -2.6352  1.4551
13035SOL     OW40545   2.930   0.768  10.205 -0.1910  0.3756  0.3647
13035SOL    HW140546   2.990   0.836  10.234 -0.7023  0.8007  0.4480
13035SOL    HW240547   2.922   0.782  10.110 -0.0747  0.2527  0.3372
13036SOL     OW40548   7.918   0.390   7.218  0.6398 -0.1624 -0.9069
13036SOL    HW140549   7.937   0.456   7.285  1.4605 -1.3990  0.1326
13036SOL    HW240550   7.822   0.388   7.213  0.5536 -0.1558  0.3668
13037SOL     OW40551   1.651   4.306   7.082 -0.1627  0.1393 -0.1400
13037SOL    HW140552   1.629   4.351   7.000  0.4205 -0.4363 -0.6332
13037SOL    HW240553   1.698   4.228   7.053 -0.4114 -0.3423  0.7307
13038SOL     OW40554   2.268   1.624   0.620 -0.1997  0.5213 -0.4307
13038SOL    HW140555   2.321   1.695   0.656  0.7644 -0.5158  0.2881
13038SOL    HW240556   2.215   1.594   0.694  1.2607 -1.1467  0.0095
13039SOL     OW40557   4.591   3.863   2.676 -0.0727 -0.0250 -0.2192
13039SOL    HW140558   4.594   3.806   2.753  1.0215 -0.0809 -0.2906
13039SOL    HW240559   4.682   3.867   2.645 -0.2180  1.2888 -0.5547
13040SOL     OW40560   0.745   4.117   0.893 -0.1073  0.4944  0.4156
13040SOL    HW140561   0.660   4.127   0.935  0.6982 -1.6723  2.8699
13040SOL    HW240562   0.806   4.161   0.952  0.6938  0.5995 -0.4600
13041SOL     OW40563   4.845   3.795  11.503 -0.0449 -0.2288 -0.6309
13041SOL    HW140564   4.851   3.791  11.407 -0.7322 -1.0208 -0.6514
13041SOL    HW240565   4.887   3.878  11.526  1.6982 -0.8187 -1.4722
13042SOL     OW40566   0.444   1.090   9.674  0.2880  0.1778 -0.5198
13042SOL    HW140567   0.438   1.136   9.758  0.9462  1.7754 -1.3034
13042SOL    HW240568   0.535   1.100   9.648  0.2808 -1.0116 -1.0560
13043SOL     OW40569   0.218   1.942   4.308  0.4690  0.4811 -0.3337
13043SOL    HW140570   0.272   1.959   4.230  1.1238  2.0804  0.4231
13043SOL    HW240571   0.279   1.953   4.382 -0.2551 -0.5221  0.4358
13044SOL     OW40572   0.425   7.862   0.046  0.4541  0.3205  0.1403
13044SOL    HW140573   0.504   7.808   0.033  0.4967  0.1979  0.8656
13044SOL    HW240574   0.401   7.848   0.137 -1.1275 -0.6083 -0.3768
13045SOL     OW40575   5.329   6.473   2.476  0.3352  0.4332  0.7272
13045SOL    HW140576   5.405   6.419   2.497  0.0524  0.3890  1.6508
13045SOL    HW240577   5.253   6.421   2.503 -0.0875  0.1395 -0.9078
13046SOL     OW40578   7.622   4.284   1.799  0.3021  0.3551  0.1363
13046SOL    HW140579   7.561   4.300   1.726  0.6718 -1.7239 -0.6947
13046SOL    HW240580   7.578   4.219   1.853  1.5672 -0.8705 -0.2581
13047SOL     OW40581   4.308   6.127   3.867  0.0574 -0.3294 -0.0936
13047SOL    HW140582   4.346   6.051   3.911 -1.2860 -0.6133  0.6177
13047SOL    HW240583   4.287   6.188   3.937  0.7549  0.5572 -0.6255
13048SOL     OW40584   7.381   7.359   5.074 -0.9408 -0.1953 -0.3590
13048SOL    HW140585   7.424   7.412   5.007 -0.5150  0.4077  0.3806
13048SOL    HW240586   7.399   7.268   5.048  1.1010  0.0196  0.1060
13049SOL     OW40587   5.809   3.042   3.398 -0.5104  0.4514 -0.1406
13049SOL    HW140588   5.900   3.074   3.398 -0.4925  0.4100  0.5823
13049SOL    HW240589   5.801   2.992   3.479 -1.2138  0.5355 -0.1523
13050SOL     OW40590   0.864   1.341   2.543 -0.4710 -0.2113 -0.1067
13050SOL    HW140591   0.902   1.369   2.460 -2.1501  0.2484 -0.7717
13050SOL    HW240592   0.771   1.362   2.535 -0.7081 -0.3014  1.8399
13051SOL     OW40593   5.109   1.551  10.099 -0.4752 -0.0920 -0.3447
13051SOL    HW140594   5.034   1.506  10.060 -1.9678  2.1699 -0.2538
13051SOL    HW240595   5.114   1.517  10.188 -1.1627 -0.5238 -0.4648
13052SOL     OW40596   4.519   3.912   8.483  0.3133  0.4609  0.0664
13052SOL    HW140597   4.490   3.835   8.435  0.5901 -0.0041  0.6474
13052SOL    HW240598   4.481   3.986   8.434  0.9378  0.0303 -1.1197
13053SOL     OW40599   0.796   0.473  11.717 -0.5060  0.4393 -0.0856
13053SOL    HW140600   0.782   0.495  11.809  0.1395  2.8066 -0.4789
13053SOL    HW240601   0.709   0.451  11.684 -1.6089  3.9381  0.1210
13054SOL     OW40602   7.583   2.687   7.037  0.4917 -0.5001 -0.3730
13054SOL    HW140603   7.579   2.775   6.999 -0.8173  0.0063  0.8561
13054SOL    HW240604   7.504   2.680   7.090  1.2940 -1.8824  0.7059
13055SOL     OW40605   6.139   2.301  10.349  0.0061 -0.1954  0.4316
13055SOL    HW140606   6.155   2.207  10.338 -1.6748 -0.7586  2.1959
13055SOL    HW240607   6.045   2.307  10.367  0.4655  1.5416  2.7170
13056SOL     OW40608   2.123   4.152   3.336  0.5005  0.1064 -0.2262
13056SOL    HW140609   2.088   4.149   3.247 -0.0354  2.0720 -0.1413
13056SOL    HW240610   2.216   4.133   3.326  0.1853 -1.1459 -0.9863
13057SOL     OW40611   3.565   7.033   3.537  0.5464  0.0728  0.2500
13057SOL    HW140612   3.528   6.957   3.582  0.6589 -1.7345 -2.4290
13057SOL    HW240613   3.659   7.028   3.555  0.4939 -0.1334  0.4780
13058SOL     OW40614   0.759   0.320   3.253 -0.3422  0.9705  0.2506
13058SOL    HW140615   0.837   0.365   3.285  0.8461 -0.4241 -0.5079
13058SOL    HW240616   0.733   0.263   3.325 -0.8175  1.6232  0.5968
13059SOL     OW40617   3.908   7.653   9.145 -0.2976 -0.3189 -0.0813
13059SOL    HW140618   3.844   7.674   9.077 -0.5508 -1.0372 -0.0718
13059SOL    HW240619   3.983   7.710   9.125 -0.9544  0.5833 -0.0475
13060SOL     OW40620   2.944   6.969   2.051 -0.0291 -0.0621  0.0506
13060SOL    HW140621   2.993   7.037   2.098 -0.0503  0.5985 -0.8761
13060SOL    HW240622   2.983   6.967   1.964  0.1507 -1.4335  0.1481
13061SOL     OW40623   1.617   7.097  11.061 -0.2936 -0.2916  0.3069
13061SOL    HW140624   1.696   7.044  11.054  1.5716  2.1709  1.4546
13061SOL    HW240625   1.567   7.058  11.133 -0.6312 -2.3734 -0.9688
13062SOL     OW40626   4.005   1.386  10.810  0.4381 -0.1329  0.3411
13062SOL    HW140627   3.966   1.403  10.896  0.3561  0.2119  0.2381
13062SOL    HW240628   4.063   1.312  10.824  0.6779  0.1323  0.7710
13063SOL     OW40629   1.992   4.797   1.022 -0.1917 -0.1555 -0.2203
13063SOL    HW140630   1.961   4.744   0.950 -1.2693  0.0340  0.0910
13063SOL    HW240631   2.050   4.739   1.072  0.5113 -0.3023 -1.1860
13064SOL     OW40632   3.913   3.144   0.818  0.3494  0.4347 -0.7126
13064SOL    HW140633   3.977   3.122   0.885  0.3739  1.0965 -0.5083
13064SOL    HW240634   3.829   3.118   0.855  0.3097  1.2542 -0.2119
13065SOL     OW40635   6.535   5.636   7.447  0.0305  0.0617 -0.1565
13065SOL    HW140636   6.571   5.553   7.479  2.6113  0.4494 -1.7328
13065SOL    HW240637   6.441   5.630   7.464  0.2203 -2.9109  0.3517
13066SOL     OW40638   0.754   1.164   6.947  0.4043 -0.4196  0.3030
13066SOL    HW140639   0.839   1.131   6.917 -0.8653 -2.0952 -1.6620
13066SOL    HW240640   0.713   1.090   6.991 -1.3604 -0.7494 -1.7233
13067SOL     OW40641   6.852   0.191   0.361 -0.0831  0.2442  0.4766
13067SOL    HW140642   6.823   0.144   0.282  1.6667  0.5450 -0.3806
13067SOL    HW240643   6.896   0.269   0.328 -0.1415  0.8526  1.7955
13068SOL     OW40644   1.416   1.120  10.065 -0.6396  0.1625 -0.5400
13068SOL    HW140645   1.509   1.137  10.080 -0.9846  1.3834  0.3761
13068SOL    HW240646   1.414   1.071   9.982  0.7238  1.2235 -1.2431
13069SOL     OW40647   2.562   5.902   2.201  1.3648 -0.4350 -0.5006
13069SOL    HW140648   2.558   5.981   2.253 -1.6150  0.6500 -2.1350
13069SOL    HW240649   2.573   5.933   2.111 -0.1951 -1.7825 -1.2144
13070SOL     OW40650   4.140   7.113   3.064  0.0936 -0.1083 -0.1301
13070SOL    HW140651   4.191   7.149   3.136 -0.7858  1.7658 -0.3967
13070SOL    HW240652   4.050   7.112   3.096  0.1015 -2.5730  0.0204
13071SOL     OW40653   2.176   4.619   1.127 -0.6802 -0.0521 -0.2164
13071SOL    HW140654   2.223   4.573   1.057 -1.2894  1.5278 -1.7392
13071SOL    HW240655   2.197   4.570   1.206  2.1486 -0.3996 -1.0789
13072SOL     OW40656   5.427   0.774   7.417  0.1531  0.9435 -0.3409
13072SOL    HW140657   5.420   0.720   7.495 -1.2509  0.1952 -0.9581
13072SOL    HW240658   5.414   0.864   7.448 -3.5923  0.4459 -0.0665
13073SOL     OW40659   7.079   5.843  12.438 -0.6912 -0.3544  0.5319
13073SOL    HW140660   7.033   5.856  12.522  0.3196  0.4512  0.9751
13073SOL    HW240661   7.057   5.753  12.413 -1.8517 -0.2666  1.1286
13074SOL     OW40662   7.967   5.540   8.188 -0.8365  0.4208 -0.4758
13074SOL    HW140663   8.011   5.488   8.256  1.3381  2.4468 -0.1548
13074SOL    HW240664   7.997   5.502   8.106  0.3859  0.8323 -0.2489
13075SOL     OW40665   3.532   6.732   0.441  0.0953  0.4175  0.0688
13075SOL    HW140666   3.451   6.683   0.426  1.4501 -1.4372 -1.7659
13075SOL    HW240667   3.519   6.814   0.393 -0.5303 -0.0537 -0.5988
13076SOL     OW40668   2.885   7.545   1.799 -0.2030  0.0613  0.1053
13076SOL    HW140669   2.855   7.636   1.801  1.0719  0.4982  0.6262
13076SOL    HW240670   2.954   7.541   1.865  0.1399 -1.1437 -0.2948
13077SOL     OW40671   0.412   7.265   9.090  0.2936 -0.2511 -0.5822
13077SOL    HW140672   0.371   7.180   9.072 -1.2338  0.0343  1.3161
13077SOL    HW240673   0.441   7.259   9.181 -0.5303  1.5096 -0.1716
13078SOL     OW40674   7.572   3.167   4.220  0.5408 -0.5181 -0.4718
13078SOL    HW140675   7.584   3.252   4.178 -2.0243 -0.2663 -0.8612
13078SOL    HW240676   7.571   3.104   4.148  2.3125 -0.8930 -0.1943
13079SOL     OW40677   3.311   1.230   7.314  0.8963  0.1981  0.6654
13079SOL    HW140678   3.353   1.292   7.373 -0.0269  1.5116 -0.0238
13079SOL    HW240679   3.219   1.256   7.311  0.5710 -0.9133 -0.0088
13080SOL     OW40680   2.186   6.970  11.666 -1.1495  0.1125  0.0146
13080SOL    HW140681   2.213   6.934  11.581  0.1696  1.6882 -0.2856
13080SOL    HW240682   2.249   7.040  11.683 -1.6962  0.1551  2.0784
13081SOL     OW40683   2.906   5.639   0.331  0.2798 -0.3323  0.4173
13081SOL    HW140684   2.944   5.657   0.245 -1.4485  0.0135 -0.3229
13081SOL    HW240685   2.899   5.726   0.373  0.3920 -0.4049  0.5894
13082SOL     OW40686   2.209   1.945   3.033 -0.5404  0.1183 -0.2183
13082SOL    HW140687   2.130   1.999   3.039  0.1949  1.2029  0.0475
13082SOL    HW240688   2.183   1.861   3.071 -1.0500  1.0613  1.6589
13083SOL     OW40689   0.613   5.415   6.518 -0.2993  0.3377  0.1496
13083SOL    HW140690   0.661   5.488   6.557  0.3418 -0.8143  1.6427
13083SOL    HW240691   0.682   5.359   6.481 -0.8139  0.7015 -1.4086
13084SOL     OW40692   5.889   3.928   0.129  0.3541 -0.5060 -0.7856
13084SOL    HW140693   5.939   4.000   0.167  1.6446 -1.0450 -1.4103
13084SOL    HW240694   5.802   3.935   0.170  0.3213  1.6031 -1.0936
13085SOL     OW40695   2.888   0.099   8.272 -0.3002  0.5689 -0.0045
13085SOL    HW140696   2.862   0.009   8.292  3.8726 -0.7914  0.2710
13085SOL    HW240697   2.918   0.134   8.356 -0.3306  1.6562 -0.4338
13086SOL     OW40698   0.131   0.605   9.439 -0.3892  0.2911  0.1899
13086SOL    HW140699   0.093   0.536   9.494 -2.1457  0.6280 -0.5392
13086SOL    HW240700   0.204   0.639   9.491 -0.4594 -1.0594  1.2341
13087SOL     OW40701   2.057   4.647  10.745 -0.0422 -0.5325  0.1306
13087SOL    HW140702   2.038   4.554  10.746 -0.3828 -0.5344  2.9960
13087SOL    HW240703   1.972   4.690  10.734 -0.0494 -0.5649  0.0643
13088SOL     OW40704   4.939   6.259   8.751 -0.0326 -0.0764  0.1342
13088SOL    HW140705   5.014   6.201   8.736 -1.7598 -3.5944  3.3848
13088SOL    HW240706   4.863   6.205   8.734 -1.7937  1.2993  2.8797
13089SOL     OW40707   1.361   6.724   9.317  0.0228  0.3712  0.0121
13089SOL    HW140708   1.302   6.799   9.328  0.4389  0.6687  0.2233
13089SOL    HW240709   1.302   6.650   9.301 -0.3662  0.8840 -1.0482
13090SOL     OW40710   0.775   3.162   3.656 -0.0805 -0.6613  1.1563
13090SOL    HW140711   0.833   3.159   3.580 -0.9102 -0.8328  0.5227
13090SOL    HW240712   0.777   3.254   3.683 -0.6331 -0.3716  0.2514
13091SOL     OW40713   3.336   6.012   0.342 -0.0114  0.0350  0.7625
13091SOL    HW140714   3.426   6.018   0.372 -0.5142 -0.4977  2.4519
13091SOL    HW240715   3.284   5.997   0.421 -1.7221  1.4901  0.0008
13092SOL     OW40716   7.487   0.656   9.446 -0.7400  0.3983  0.8763
13092SOL    HW140717   7.424   0.673   9.516 -0.2389  0.6980  1.2618
13092SOL    HW240718   7.446   0.587   9.394 -0.6379 -0.6209  2.0977
13093SOL     OW40719   2.904   1.708   5.784 -0.0364  0.4634  0.2967
13093SOL    HW140720   2.967   1.750   5.725  0.2128  0.8612  0.8342
13093SOL    HW240721   2.891   1.772   5.854  0.5277 -0.4351  1.2537
13094SOL     OW40722   0.081   6.454  11.639  0.2636  0.2205 -0.7378
13094SOL    HW140723   0.020   6.446  11.712 -0.8839  0.1910 -1.6639
13094SOL    HW240724   0.150   6.512  11.672 -2.1596  3.4231 -0.7818
13095SOL     OW40725   3.087   1.030   6.411 -0.5475  0.5222 -0.2283
13095SOL    HW140726   3.022   1.098   6.396  0.5480  1.7830  0.5439
13095SOL    HW240727   3.161   1.053   6.355 -0.6527 -0.7833 -0.9542
13096SOL     OW40728   2.817   7.766  10.030  0.2795  0.2109 -0.1098
13096SOL    HW140729   2.906   7.734  10.047 -0.5460 -2.5639 -0.4236
13096SOL    HW240730   2.785   7.797  10.115  1.0677 -0.1138  0.3129
13097SOL     OW40731   5.265   5.454   5.892 -0.2804 -0.1514 -0.0451
13097SOL    HW140732   5.260   5.473   5.986 -1.0213  0.4821 -0.2055
13097SOL    HW240733   5.181   5.413   5.872 -1.3878  2.3679 -0.9872
13098SOL     OW40734   3.292   2.834   9.058 -0.3449  0.0333  0.0525
13098SOL    HW140735   3.372   2.882   9.035  0.3379 -0.3724  1.4132
13098SOL    HW240736   3.247   2.891   9.120 -1.2904  0.3936 -0.9493
13099SOL     OW40737   4.626   1.659   6.331  0.1246  0.5008  0.4277
13099SOL    HW140738   4.568   1.636   6.403 -0.5706  2.5694  0.5798
13099SOL    HW240739   4.590   1.740   6.295  0.8120 -0.1152 -1.8649
13100SOL     OW40740   7.111   6.782   4.305 -0.3429 -0.5026 -0.0542
13100SOL    HW140741   7.122   6.812   4.215 -0.1631 -0.9264 -0.1765
13100SOL    HW240742   7.200   6.771   4.338 -0.3445 -2.6767 -0.6203
13101SOL     OW40743   1.239   6.542   0.378 -0.2362  0.0751 -0.1792
13101SOL    HW140744   1.228   6.512   0.469 -1.6577 -2.7724 -1.1769
13101SOL    HW240745   1.315   6.601   0.382 -0.6503  0.6126  2.9289
13102SOL     OW40746   5.396   1.412   0.870 -0.2443 -0.0287  0.0268
13102SOL    HW140747   5.486   1.430   0.846 -0.6325  1.1337 -0.6259
13102SOL    HW240748   5.370   1.486   0.924 -0.7095 -0.5298  0.5160
13103SOL     OW40749   4.945   2.187   2.728 -0.6838 -0.3562 -0.2152
13103SOL    HW140750   4.973   2.225   2.645 -0.0434 -0.2456  0.0403
13103SOL    HW240751   4.961   2.093   2.718 -2.3769 -0.6004 -0.8891
13104SOL     OW40752   3.997   5.995   6.599  0.3882 -0.4401 -0.3701
13104SOL    HW140753   3.924   5.938   6.575 -0.5968  0.8506 -0.5712
13104SOL    HW240754   4.027   6.032   6.516 -0.2718  0.8053 -0.0865
13105SOL     OW40755   4.669   3.966   1.733 -0.3387 -0.1405 -0.4859
13105SOL    HW140756   4.651   3.906   1.659 -0.1769 -0.8148  0.0113
13105SOL    HW240757   4.752   3.936   1.768 -0.9275 -0.5049  0.6356
13106SOL     OW40758   6.483   3.238  11.498 -0.2861 -0.4298  0.2745
13106SOL    HW140759   6.534   3.168  11.538  0.0170 -0.5627 -0.3422
13106SOL    HW240760   6.548   3.301  11.468 -0.4827 -0.5743 -0.4709
13107SOL     OW40761   6.553   0.726   1.203  0.1044  0.3169 -0.1091
13107SOL    HW140762   6.631   0.732   1.259  0.5812 -0.6022 -0.6434
13107SOL    HW240763   6.570   0.786   1.131  0.3688  0.0477 -0.2739
13108SOL     OW40764   3.945   7.093   3.406  0.5768 -0.2909  0.2343
13108SOL    HW140765   3.905   7.013   3.438  3.7235 -1.7590  0.9130
13108SOL    HW240766   3.938   7.155   3.479  0.0121 -0.6531  0.4900
13109SOL     OW40767   3.452   2.950   2.898  0.6867 -0.2640  0.3416
13109SOL    HW140768   3.458   3.034   2.853 -0.1492 -0.6280 -0.4853
13109SOL    HW240769   3.394   2.897   2.843  0.7669 -1.2023  1.1254
13110SOL     OW40770   5.195   7.374   8.932  0.5460 -0.0163  0.5224
13110SOL    HW140771   5.130   7.428   8.887  2.4180  0.3309 -1.9871
13110SOL    HW240772   5.152   7.290   8.945 -0.6616  0.4409 -0.3444
13111SOL     OW40773   1.171   7.775  11.058 -0.7581 -0.6492  0.1025
13111SOL    HW140774   1.103   7.710  11.039  0.1286 -1.5044 -0.2394
13111SOL    HW240775   1.207   7.796  10.972 -1.8511  1.2615  0.0571
13112SOL     OW40776   6.326   2.325   4.116 -0.3790 -0.2841  0.2324
13112SOL    HW140777   6.297   2.366   4.035  1.3517 -2.4338 -1.5926
13112SOL    HW240778   6.406   2.372   4.139 -0.7242  0.1489  0.5630
13113SOL     OW40779   6.624   4.096   7.329 -0.2209  0.1164 -0.0059
13113SOL    HW140780   6.625   4.023   7.392 -1.6707 -0.2748 -0.4068
13113SOL    HW240781   6.622   4.053   7.243  0.1393  0.6468 -0.2827
13114SOL     OW40782   2.268   6.824   7.680  0.1113 -0.2108  0.3539
13114SOL    HW140783   2.206   6.775   7.627  0.2217 -0.2564  0.2689
13114SOL    HW240784   2.215   6.896   7.717 -0.0645 -0.4270  0.5302
13115SOL     OW40785   6.961   4.080  11.506  0.2733 -0.0647 -0.1627
13115SOL    HW140786   7.031   4.057  11.446  0.4141 -1.1207  0.3902
13115SOL    HW240787   6.911   4.147  11.460  1.9034  1.0772 -0.3824
13116SOL     OW40788   2.055   5.053   7.043 -0.2285  0.1794 -0.3309
13116SOL    HW140789   2.142   5.038   7.080 -0.1206 -0.3028 -0.7580
13116SOL    HW240790   2.019   5.125   7.094  0.8137  1.0533 -0.7846
13117SOL     OW40791   7.246   7.911   0.608  0.3657  0.3182 -0.2042
13117SOL    HW140792   7.207   7.934   0.692  2.5652  1.7398  0.5135
13117SOL    HW240793   7.171   7.903   0.548 -1.0935  1.6500  1.3394
13118SOL     OW40794   4.652   2.637   2.055 -0.4658 -0.2818  0.0618
13118SOL    HW140795   4.617   2.585   1.983  0.1417 -1.8298  0.8252
13118SOL    HW240796   4.658   2.726   2.021 -1.2218 -0.7673 -1.4146
13119SOL     OW40797   2.377   6.365   0.619  0.2662 -0.2473 -0.4397
13119SOL    HW140798   2.387   6.286   0.672  0.7749  0.5011  0.6122
13119SOL    HW240799   2.319   6.338   0.548  0.9488 -1.7447 -0.4795
13120SOL     OW40800   7.250   2.882   0.712 -0.3069  0.1907  0.3699
13120SOL    HW140801   7.241   2.932   0.793 -1.6304  1.5618 -0.5671
13120SOL    HW240802   7.246   2.948   0.642  1.3076 -0.8976 -0.8204
13121SOL     OW40803   6.445   2.184   3.470  0.2369 -0.2156 -0.4980
13121SOL    HW140804   6.404   2.098   3.478  0.0715 -0.1708 -0.8103
13121SOL    HW240805   6.475   2.187   3.379 -0.4391  0.3458 -0.7193
13122SOL     OW40806   2.035   0.072   4.958  1.1823 -0.0867 -0.3977
13122SOL    HW140807   1.940   0.081   4.963  0.9151 -1.9674 -1.1810
13122SOL    HW240808   2.059   0.115   4.876  0.5904 -1.9092 -1.6034
13123SOL     OW40809   2.112   5.118   9.437  0.5267  0.1489 -0.3393
13123SOL    HW140810   2.075   5.122   9.349 -0.1797 -0.5128 -0.0876
13123SOL    HW240811   2.044   5.153   9.494  0.6221 -0.2726  0.0399
13124SOL     OW40812   5.458   0.499  11.774 -0.1090  0.2635  0.4416
13124SOL    HW140813   5.399   0.502  11.698  0.2766  1.3080  0.1682
13124SOL    HW240814   5.460   0.406  11.799  0.4300 -0.2518 -1.3509
13125SOL     OW40815   5.557   6.237   7.743  0.8171  0.1473  0.1064
13125SOL    HW140816   5.527   6.301   7.807  0.8250 -0.4612  0.7321
13125SOL    HW240817   5.611   6.288   7.682 -0.7115  1.0830 -0.5241
13126SOL     OW40818   3.150   7.661   6.926 -0.1821 -0.2615  0.0577
13126SOL    HW140819   3.193   7.736   6.966 -0.6355  0.3212 -0.5236
13126SOL    HW240820   3.108   7.697   6.847  0.4328 -1.3032 -0.7775
13127SOL     OW40821   7.272   4.539   6.130 -0.3383  0.6450  0.4514
13127SOL    HW140822   7.337   4.552   6.060 -1.2687  0.6437 -0.4405
13127SOL    HW240823   7.188   4.539   6.084 -0.9371  0.1328  1.5250
13128SOL     OW40824   2.185   2.273  10.769 -0.5817 -0.1660 -0.1075
13128SOL    HW140825   2.132   2.288  10.847 -0.0303 -0.3413  0.3103
13128SOL    HW240826   2.269   2.314  10.790 -0.1266 -1.0039 -0.2366
13129SOL     OW40827   5.342   6.884   2.836 -0.0335 -0.2903 -0.1650
13129SOL    HW140828   5.268   6.941   2.857  0.8070  1.0295 -0.7145
13129SOL    HW240829   5.318   6.843   2.753  0.7534  1.8140 -1.4936
13130SOL     OW40830   2.929   1.554   1.875 -0.6126  0.3423 -0.1711
13130SOL    HW140831   2.839   1.558   1.906 -0.4939 -0.0436  0.2420
13130SOL    HW240832   2.951   1.461   1.880  0.2251  0.5752  0.9745
13131SOL     OW40833   1.863   2.253   9.926 -0.1735 -0.2228  0.7575
13131SOL    HW140834   1.958   2.259   9.916 -0.3193  0.0448 -0.6689
13131SOL    HW240835   1.829   2.331   9.883 -1.1246 -1.2496 -0.4256
13132SOL     OW40836   6.288   6.524   9.102  0.1576 -0.3941  0.4826
13132SOL    HW140837   6.321   6.503   9.189  1.2455  0.0813  0.1987
13132SOL    HW240838   6.240   6.606   9.113  0.8246 -0.0045  0.5289
13133SOL     OW40839   4.992   3.748   0.781  0.0171  0.1152  0.1199
13133SOL    HW140840   5.056   3.677   0.772  0.6453  0.5870  0.7961
13133SOL    HW240841   4.966   3.768   0.691  1.1420  0.2014 -0.2072
13134SOL     OW40842   6.399   6.165  12.329 -0.1650  0.1701  0.3588
13134SOL    HW140843   6.494   6.179  12.325 -0.3438  1.6116  0.6353
13134SOL    HW240844   6.384   6.130  12.416  0.1510 -0.4645  0.1649
13135SOL     OW40845   7.652   1.941   6.659  0.4706  0.1779 -0.2456
13135SOL    HW140846   7.723   1.882   6.632 -0.9491 -0.5506 -2.6318
13135SOL    HW240847   7.664   2.020   6.606  0.0723  0.4566  0.0707
13136SOL     OW40848   1.022   4.690   5.916  0.5986  0.4248 -0.5230
13136SOL    HW140849   1.018   4.784   5.904 -0.5221  0.6117  1.0926
13136SOL    HW240850   0.963   4.672   5.989  0.8258 -1.5229 -0.7639
13137SOL     OW40851   5.633   2.611   0.792  0.4121  0.3723  0.3255
13137SOL    HW140852   5.615   2.670   0.865 -1.9192 -0.3769  0.4544
13137SOL    HW240853   5.653   2.669   0.719 -0.8332  1.3140  0.6918
13138SOL     OW40854   7.874   1.170   3.994 -0.7959  0.3663 -0.0926
13138SOL    HW140855   7.959   1.137   3.964 -0.4535  0.6493  0.5488
13138SOL    HW240856   7.837   1.215   3.918  0.5084  1.9792  0.1789
13139SOL     OW40857   4.693   6.184   1.012 -0.1091 -0.1323  0.0570
13139SOL    HW140858   4.773   6.158   1.059 -0.5882 -0.2426  0.8334
13139SOL    HW240859   4.668   6.267   1.052 -2.2384 -1.6871  2.2458
13140SOL     OW40860   3.036   3.009  10.432  0.5290 -0.7057 -0.4365
13140SOL    HW140861   3.067   2.998  10.522 -1.9347  1.3909  0.7770
13140SOL    HW240862   3.101   3.066  10.391  1.1650 -0.8780  0.3028
13141SOL     OW40863   3.274   5.860   2.879  0.3922 -0.0138  0.5012
13141SOL    HW140864   3.258   5.884   2.970  0.4027  0.7121  0.3191
13141SOL    HW240865   3.335   5.787   2.884  0.6022  0.1936  1.0721
13142SOL     OW40866   1.481   1.154   2.999 -0.6696  0.0236 -0.4467
13142SOL    HW140867   1.456   1.122   3.086 -0.0406  0.7985  0.0299
13142SOL    HW240868   1.503   1.074   2.950  1.7947 -0.3052  1.0186
13143SOL     OW40869   0.856   1.427   7.069  0.3703 -0.1725 -0.4297
13143SOL    HW140870   0.806   1.508   7.076  0.4016 -0.1877 -0.0170
13143SOL    HW240871   0.792   1.363   7.035  0.5620  0.2142 -1.5688
13144SOL     OW40872   6.621   2.976   2.001  0.1239 -0.3978 -0.3764
13144SOL    HW140873   6.665   2.892   1.993  0.9787 -0.1757  1.4032
13144SOL    HW240874   6.692   3.041   1.995 -0.0125  0.0065  1.6089
13145SOL     OW40875   6.818   7.044   1.760  0.3565  0.1707  0.4901
13145SOL    HW140876   6.787   7.007   1.843 -0.2389  1.7951  1.0373
13145SOL    HW240877   6.769   6.997   1.693  0.1437 -0.5091  1.1080
13146SOL     OW40878   0.071   6.673   8.038  0.5550  0.6785 -0.1870
13146SOL    HW140879   0.016   6.608   7.994 -0.7608  1.5534  0.1104
13146SOL    HW240880   0.160   6.639   8.029 -0.1130 -1.2793  0.1682
13147SOL     OW40881   5.919   5.721   0.255  0.3499  0.0513  0.0632
13147SOL    HW140882   5.966   5.703   0.173 -1.2061  0.5369 -0.9755
13147SOL    HW240883   5.882   5.808   0.243 -3.6228 -1.5075 -0.6205
13148SOL     OW40884   3.926   4.550   0.361  0.0469  0.4074 -0.8485
13148SOL    HW140885   3.869   4.480   0.392  1.1683 -0.2973 -0.3133
13148SOL    HW240886   3.867   4.620   0.336 -1.1059 -0.6894 -1.3050
13149SOL     OW40887   7.696   7.095   9.230 -0.0621  0.2813 -0.4711
13149SOL    HW140888   7.716   7.029   9.297 -1.8522 -0.4217 -0.5778
13149SOL    HW240889   7.623   7.058   9.180 -0.4674  1.9197 -1.1741
13150SOL     OW40890   2.541   2.157   8.203 -0.3566 -0.3302 -0.3202
13150SOL    HW140891   2.592   2.207   8.140  1.0599 -2.8413 -1.3103
13150SOL    HW240892   2.572   2.189   8.288  1.5017 -0.4137 -0.9040
13151SOL     OW40893   1.887   2.355   3.991 -0.4859  0.2708 -0.5555
13151SOL    HW140894   1.852   2.386   3.907 -0.4795  2.7345  0.2818
13151SOL    HW240895   1.981   2.346   3.975 -0.5069  0.5832 -0.8792
13152SOL     OW40896   5.183   7.918   0.982 -0.0660 -0.5791 -0.5734
13152SOL    HW140897   5.176   7.840   0.926  0.0470  0.2790 -1.8086
13152SOL    HW240898   5.201   7.882   1.069 -0.3822 -1.9561 -1.0393
13153SOL     OW40899   5.882   7.556  10.731 -0.6397  0.1390 -0.2274
13153SOL    HW140900   5.934   7.627  10.769  0.2962  0.3513 -1.7872
13153SOL    HW240901   5.898   7.564  10.636 -0.9101 -1.8493 -0.4736
13154SOL     OW40902   4.268   6.431   1.101 -0.1003  0.4550  0.2724
13154SOL    HW140903   4.234   6.423   1.190  0.1377 -0.5685  0.2894
13154SOL    HW240904   4.321   6.510   1.103 -0.9305  1.0108  0.7537
13155SOL     OW40905   2.099   3.981   9.411  0.5548 -0.0947 -0.0857
13155SOL    HW140906   2.051   4.060   9.388 -0.6854 -0.2975  1.6037
13155SOL    HW240907   2.185   3.993   9.371  0.5930  2.3680  0.5331
13156SOL     OW40908   5.919   4.454   2.962 -0.0217 -0.9254 -0.2531
13156SOL    HW140909   5.840   4.480   3.008 -0.5926 -0.4068 -1.4812
13156SOL    HW240910   5.989   4.461   3.027 -0.9686 -1.3438  0.8318
13157SOL     OW40911   7.516   6.472   6.371 -0.7203 -0.5405  0.1263
13157SOL    HW140912   7.423   6.474   6.347 -0.5427  0.3039 -0.4977
13157SOL    HW240913   7.562   6.459   6.288 -0.0971  2.4739 -0.0954
13158SOL     OW40914   7.195   4.922   7.828 -0.1640 -0.2955 -0.2050
13158SOL    HW140915   7.130   4.915   7.898  0.2366  0.8254  0.2994
13158SOL    HW240916   7.256   4.990   7.858 -1.2698  1.9588 -2.6270
13159SOL     OW40917   3.628   4.200   6.937  0.0028 -0.6345 -0.1698
13159SOL    HW140918   3.626   4.128   6.875  0.4375 -0.0418 -0.9038
13159SOL    HW240919   3.593   4.275   6.889 -1.9420 -0.6833  1.0715
13160SOL     OW40920   3.801   2.383   4.412 -0.0616  0.0112  0.3193
13160SOL    HW140921   3.751   2.312   4.451 -0.2221 -0.0715 -0.0258
13160SOL    HW240922   3.735   2.443   4.378  0.0558 -0.4004 -0.6781
13161SOL     OW40923   6.740   1.560   0.386  0.2378  0.0578 -0.3418
13161SOL    HW140924   6.794   1.592   0.314  0.6405  0.4571  0.1275
13161SOL    HW240925   6.776   1.474   0.407 -0.8017 -0.7047 -1.5607
13162SOL     OW40926   6.349   3.156  11.893 -0.4338  0.9512  0.2691
13162SOL    HW140927   6.323   3.239  11.934 -0.4659  1.0342  0.0824
13162SOL    HW240928   6.431   3.133  11.936 -0.6194  0.8869  0.5863
13163SOL     OW40929   3.291   2.490   3.810  0.4014 -0.2781 -0.0529
13163SOL    HW140930   3.386   2.502   3.815  0.2208  1.7101 -0.6131
13163SOL    HW240931   3.263   2.481   3.902  1.1332 -1.0420  0.1018
13164SOL     OW40932   5.097   1.481   6.109  0.4125 -0.4121  0.2785
13164SOL    HW140933   5.092   1.432   6.027  0.3162  2.8411 -1.8431
13164SOL    HW240934   5.017   1.533   6.112 -0.9734 -2.3869  3.9752
13165SOL     OW40935   3.960   5.843   0.450 -0.5001  0.5869 -1.1982
13165SOL    HW140936   3.907   5.921   0.466 -0.0813  0.4164  1.5231
13165SOL    HW240937   3.917   5.773   0.499  0.3573 -0.3656 -1.7575
13166SOL     OW40938   7.272   6.528  10.551  0.4461  0.2018  1.1866
13166SOL    HW140939   7.228   6.482  10.623 -1.1200 -0.7078 -0.2939
13166SOL    HW240940   7.210   6.524  10.479  2.2059  0.6057 -0.4064
13167SOL     OW40941   3.753   3.616   7.303 -0.4161 -0.1396  0.0167
13167SOL    HW140942   3.808   3.648   7.375 -2.4181  0.9449  1.1652
13167SOL    HW240943   3.680   3.678   7.299 -1.3925 -1.3033 -1.6603
13168SOL     OW40944   7.461   7.081   3.977 -0.4045 -0.8741  0.7012
13168SOL    HW140945   7.437   7.066   4.068 -0.1077  0.4499  1.0209
13168SOL    HW240946   7.544   7.036   3.966 -0.4365 -1.0264  1.0854
13169SOL     OW40947   5.234   1.337   5.847 -0.2587 -0.0042  0.1742
13169SOL    HW140948   5.263   1.273   5.782  0.8879 -0.4822  1.1221
13169SOL    HW240949   5.232   1.420   5.799 -2.5191 -0.7834 -1.2946
13170SOL     OW40950   0.836   2.183   4.576 -0.0010  0.0475 -0.3165
13170SOL    HW140951   0.766   2.226   4.527  1.7920  1.0621 -2.1312
13170SOL    HW240952   0.796   2.103   4.609 -1.5923 -0.2346 -2.6634
13171SOL     OW40953   2.369   6.295   4.470 -0.2002  0.2421  0.3019
13171SOL    HW140954   2.399   6.380   4.437 -1.7055  0.2390 -1.2261
13171SOL    HW240955   2.406   6.289   4.558  0.2168  2.3270  0.3247
13172SOL     OW40956   2.262   7.804  10.784 -0.1136 -0.2781  0.1124
13172SOL    HW140957   2.312   7.745  10.839  1.3557  0.9897  0.2096
13172SOL    HW240958   2.189   7.832  10.839  0.4536 -0.2475  0.8636
13173SOL     OW40959   2.903   0.635   8.110  0.5368 -0.1430  0.1988
13173SOL    HW140960   2.830   0.630   8.171  1.5529  1.1311  1.5908
13173SOL    HW240961   2.927   0.543   8.094 -0.2492 -0.5249  1.1024
13174SOL     OW40962   1.929   2.012   6.248 -0.5585  0.4338  0.1690
13174SOL    HW140963   2.018   2.045   6.235 -0.5794  0.6316  0.5199
13174SOL    HW240964   1.890   2.071   6.313 -0.8763  0.2261  0.1721
13175SOL     OW40965   2.234   4.303  10.924  0.2785  0.1826 -0.3432
13175SOL    HW140966   2.217   4.332  10.835 -0.6692 -0.3957 -0.3603
13175SOL    HW240967   2.148   4.301  10.966  0.7589  0.9253  0.7441
13176SOL     OW40968   0.168   4.262   8.697 -0.6722 -0.1917  0.4422
13176SOL    HW140969   0.154   4.169   8.681 -0.4954 -0.1807  0.2160
13176SOL    HW240970   0.117   4.306   8.629  1.7842 -0.1667 -1.5475
13177SOL     OW40971   5.483   6.251   3.449 -0.0884  0.0187 -0.1001
13177SOL    HW140972   5.541   6.179   3.472 -0.2595 -0.4882 -1.2030
13177SOL    HW240973   5.396   6.223   3.477  0.0385  0.3742  0.6807
13178SOL     OW40974   7.368   0.760  11.679 -0.2748  0.1905 -0.1194
13178SOL    HW140975   7.454   0.797  11.698 -0.6831  1.4140 -0.5188
13178SOL    HW240976   7.348   0.705  11.755  0.5494  0.4790  0.3149
13179SOL     OW40977   6.040   1.642   9.089  0.0430  0.1782  0.1874
13179SOL    HW140978   5.950   1.668   9.109  0.6929  1.5154  1.6369
13179SOL    HW240979   6.074   1.715   9.036 -0.1579 -1.0551 -1.7383
13180SOL     OW40980   4.834   7.645   6.241 -0.2381 -0.0239  0.5723
13180SOL    HW140981   4.756   7.619   6.290 -1.8649  4.0013  0.4577
13180SOL    HW240982   4.800   7.689   6.163  2.0340  2.6810  0.9373
13181SOL     OW40983   7.218   4.658   8.385 -0.4905  0.1569  0.3545
13181SOL    HW140984   7.164   4.619   8.454 -1.9518  1.3180 -0.0814
13181SOL    HW240985   7.305   4.622   8.400 -1.2825 -1.4799  1.3294
13182SOL     OW40986   3.844   4.629  10.587  0.2294 -0.6688 -0.2955
13182SOL    HW140987   3.777   4.662  10.647  1.8735 -0.3681  1.4321
13182SOL    HW240988   3.850   4.536  10.607  0.5141 -0.6421 -0.2543
13183SOL     OW40989   3.194   7.535   4.746 -0.4838 -0.4178 -0.1418
13183SOL    HW140990   3.225   7.445   4.746 -2.0324 -0.9845 -0.5102
13183SOL    HW240991   3.163   7.550   4.835 -2.0065 -0.9286 -0.5587
13184SOL     OW40992   6.335   3.270   0.724  0.4359 -0.5607  0.4830
13184SOL    HW140993   6.422   3.233   0.708  1.5166  1.0186  2.2381
13184SOL    HW240994   6.341   3.360   0.690 -1.2515 -1.0426 -1.2788
13185SOL     OW40995   0.103   1.897   6.472 -0.2702  0.3727  0.1510
13185SOL    HW140996   0.073   1.984   6.497  0.1095 -0.1412  2.6342
13185SOL    HW240997   0.198   1.906   6.464 -0.2748  0.2769 -0.0234
13186SOL     OW40998   2.162   4.909   5.118 -0.5806  0.3378  0.0776
13186SOL    HW140999   2.196   4.826   5.084 -1.6966  0.6078 -1.8920
13186SOL    HW241000   2.069   4.893   5.132 -0.5694  0.9197  0.8907
13187SOL     OW41001   4.639   2.807  10.859  0.1053 -0.2919 -0.5787
13187SOL    HW141002   4.574   2.776  10.795 -0.2688  0.3107 -0.5036
13187SOL    HW241003   4.590   2.867  10.915  0.0520 -1.9625  1.2600
13188SOL     OW41004   2.229   6.527   2.857 -0.5257  0.7026  0.4592
13188SOL    HW141005   2.217   6.566   2.770  0.0307  0.2073  0.1471
13188SOL    HW241006   2.174   6.579   2.915 -1.2512  0.7703 -0.2684
13189SOL     OW41007   1.661   0.003   5.055 -0.1844  0.2667  0.0022
13189SOL    HW141008   1.721  -0.010   4.981  0.3121 -1.6621  0.6845
13189SOL    HW241009   1.636  -0.085   5.081 -0.2254  0.8793  2.2393
13190SOL     OW41010   6.172   1.542   7.193 -0.0304 -0.2412 -0.4806
13190SOL    HW141011   6.209   1.630   7.194 -0.9053  0.1398 -0.7597
13190SOL    HW241012   6.077   1.555   7.198 -0.1452 -1.1943  0.4699
13191SOL     OW41013   6.168   6.082   3.352 -0.8286 -0.3771 -0.2591
13191SOL    HW141014   6.189   6.173   3.373 -2.1531 -0.1784  0.2509
13191SOL    HW241015   6.163   6.081   3.257 -0.8269  0.0789 -0.2687
13192SOL     OW41016   1.159   2.424   3.727 -0.3870 -0.1509  0.1827
13192SOL    HW141017   1.190   2.514   3.717  3.5478 -1.5229 -2.8352
13192SOL    HW241018   1.132   2.398   3.639  0.5966 -2.4550  0.4839
13193SOL     OW41019   5.583   5.447   1.044 -0.1101  0.2488 -0.7190
13193SOL    HW141020   5.501   5.415   1.006  0.0903  0.7432 -1.6059
13193SOL    HW241021   5.642   5.456   0.969 -0.0237  2.2279 -0.4817
13194SOL     OW41022   6.795   3.145  10.132 -0.2064  0.4782  0.3062
13194SOL    HW141023   6.773   3.226  10.085 -1.4785 -0.0423 -0.0495
13194SOL    HW241024   6.754   3.155  10.218 -0.3660  0.2193  0.2609
13195SOL     OW41025   0.574   0.221   2.657  0.2676  0.4717 -0.0717
13195SOL    HW141026   0.535   0.307   2.640 -0.6561  0.4678  1.7943
13195SOL    HW241027   0.499   0.162   2.665  0.8723 -0.4078 -0.7493
13196SOL     OW41028   7.371   1.430  11.322  0.2113 -0.4642  0.3080
13196SOL    HW141029   7.417   1.483  11.388 -0.3992  0.3352  0.1091
13196SOL    HW241030   7.279   1.453  11.332  0.1294 -0.1390 -0.9838
13197SOL     OW41031   6.739   3.108   8.274  0.3000  0.0031  0.3047
13197SOL    HW141032   6.701   3.053   8.342  1.5333  0.6486  1.5699
13197SOL    HW241033   6.692   3.084   8.194  0.0974 -2.1281  1.0041
13198SOL     OW41034   4.297   3.614  10.402 -0.2451 -0.0138 -0.0132
13198SOL    HW141035   4.392   3.602  10.391 -0.3008 -0.2029 -0.2901
13198SOL    HW241036   4.284   3.617  10.496  0.0639  0.2123  0.0222
13199SOL     OW41037   2.267   7.684   4.143 -0.6028  0.6269  0.3812
13199SOL    HW141038   2.231   7.595   4.148  0.8156  0.0020  0.0529
13199SOL    HW241039   2.263   7.717   4.232 -1.8367  0.5232  0.3754
13200SOL     OW41040   2.087   2.184   2.608 -0.0918  0.0264  0.3433
13200SOL    HW141041   2.158   2.213   2.550 -0.4981 -0.2620 -0.3147
13200SOL    HW241042   2.072   2.257   2.667  0.1803  0.4145 -0.0642
13201SOL     OW41043   1.215   3.280   9.772  0.3477 -0.1880 -0.1343
13201SOL    HW141044   1.166   3.308   9.850  0.8173  0.6575 -0.1303
13201SOL    HW241045   1.150   3.274   9.703  0.6178  5.0185 -1.2576
13202SOL     OW41046   3.415   6.212  11.778  0.3267  0.1996  0.0127
13202SOL    HW141047   3.401   6.264  11.699 -0.5083  1.2852  0.8556
13202SOL    HW241048   3.327   6.191  11.809  0.6136  0.8543  1.3362
13203SOL     OW41049   6.084   1.354   9.122 -0.0151 -0.1492 -0.5747
13203SOL    HW141050   5.998   1.320   9.146 -1.5258  1.3267 -3.3729
13203SOL    HW241051   6.068   1.447   9.102  2.1629  0.1020 -1.4495
13204SOL     OW41052   3.493   5.352   5.612  0.2815  0.5830 -0.4710
13204SOL    HW141053   3.538   5.436   5.617  1.7395 -0.2623  2.0197
13204SOL    HW241054   3.454   5.340   5.698 -1.8143 -0.3330 -1.4740
13205SOL     OW41055   1.583   1.428   6.255  0.5363  0.0015  0.4685
13205SOL    HW141056   1.671   1.465   6.264  0.0668  1.2493  0.1737
13205SOL    HW241057   1.584   1.382   6.171  1.3996 -1.4869  1.2499
13206SOL     OW41058   0.475   0.575   4.697  0.0900  0.2446 -0.0125
13206SOL    HW141059   0.515   0.631   4.764 -0.5125 -1.2154  1.6750
13206SOL    HW241060   0.526   0.590   4.618  3.8610 -1.2991  1.9087
13207SOL     OW41061   2.915   0.455  10.888  0.0709  0.2331  0.1030
13207SOL    HW141062   2.979   0.445  10.818  0.4986 -0.7933  0.6261
13207SOL    HW241063   2.849   0.387  10.871  0.3545 -0.2456  0.8720
13208SOL     OW41064   3.721   5.123   9.704 -0.1377 -0.4431  0.2487
13208SOL    HW141065   3.670   5.115   9.623  2.4645 -0.5461 -1.5032
13208SOL    HW241066   3.777   5.045   9.704  0.3535 -0.1186  1.8395
13209SOL     OW41067   5.577   7.332   1.378  0.0752 -0.4663  0.0443
13209SOL    HW141068   5.659   7.362   1.339  0.7036 -0.8399  1.0358
13209SOL    HW241069   5.559   7.396   1.447  0.5664 -1.4413  1.0968
13210SOL     OW41070   5.658   7.580  10.324  0.1130  0.1997  0.2771
13210SOL    HW141071   5.575   7.535  10.305 -0.1048  0.7038  0.0125
13210SOL    HW241072   5.723   7.510  10.328 -0.1398 -0.1037 -0.5898
13211SOL     OW41073   7.214   1.233   5.831  0.1172  0.1481 -0.1960
13211SOL    HW141074   7.310   1.237   5.827  0.1082 -0.2128 -0.8565
13211SOL    HW241075   7.185   1.281   5.754 -0.2455  0.5233  0.1689
13212SOL     OW41076   3.526   2.511   1.878  0.3836  0.5227  0.3071
13212SOL    HW141077   3.439   2.508   1.840  0.4683 -0.7190  0.1610
13212SOL    HW241078   3.581   2.552   1.811  0.4680 -1.3386 -0.8389
13213SOL     OW41079   6.920   7.888   7.451  0.3192  0.1561  0.1924
13213SOL    HW141080   6.924   7.816   7.388 -0.3749  0.6557 -0.4315
13213SOL    HW241081   7.008   7.893   7.488  0.7163 -0.1716 -0.7044
13214SOL     OW41082   7.923   0.739   5.971  0.4458 -0.2589 -0.3095
13214SOL    HW141083   7.907   0.692   6.053  1.9019 -1.2971 -0.5856
13214SOL    HW241084   7.944   0.828   5.998  0.5932 -0.5087  0.4313
13215SOL     OW41085   6.683   0.664   4.199 -0.2171 -0.0149  0.2189
13215SOL    HW141086   6.776   0.643   4.199 -0.4856 -1.3175 -0.3016
13215SOL    HW241087   6.679   0.759   4.188  1.0496  0.1089  0.7669
13216SOL     OW41088   1.780   3.193  11.835  0.4246 -0.2079 -0.8254
13216SOL    HW141089   1.747   3.240  11.911 -2.1828  0.9769 -2.5383
13216SOL    HW241090   1.817   3.260  11.778  2.3886 -1.0794 -0.6776
13217SOL     OW41091   0.218   0.979  11.246  0.2104  0.0541  0.0213
13217SOL    HW141092   0.187   0.905  11.297  1.1436 -0.5299 -0.2403
13217SOL    HW241093   0.208   1.055  11.304  0.4495 -0.4661  0.7538
13218SOL     OW41094   5.424   1.870   3.654  0.3362 -0.7011  0.1938
13218SOL    HW141095   5.340   1.869   3.608 -0.0402  0.7233  0.7978
13218SOL    HW241096   5.437   1.962   3.678  1.0422 -1.2378  2.0007
13219SOL     OW41097   5.830   7.713   9.331 -0.1256  0.4309  0.5629
13219SOL    HW141098   5.837   7.805   9.309  1.7655  0.3190  0.5131
13219SOL    HW241099   5.744   7.687   9.300 -0.3651  1.9814 -0.1508
13220SOL     OW41100   4.961   5.704   9.854  0.7388 -0.4818 -0.2157
13220SOL    HW141101   4.972   5.762   9.778 -2.7293  0.9582  0.1813
13220SOL    HW241102   4.969   5.762   9.930 -2.5220 -0.3764  0.1952
13221SOL     OW41103   7.221   3.229   7.040 -0.1785 -0.2600  0.1543
13221SOL    HW141104   7.312   3.247   7.017 -0.8468  1.9246 -1.1490
13221SOL    HW241105   7.190   3.310   7.080 -1.7961 -0.6119 -0.2938
13222SOL     OW41106   7.058   0.465   1.722  0.0039 -0.2185  0.1007
13222SOL    HW141107   7.151   0.456   1.702 -0.3052  1.2409 -2.4247
13222SOL    HW241108   7.030   0.378   1.748  1.5989 -1.2003 -1.3053
13223SOL     OW41109   6.389   4.719   1.627 -0.1873  0.0768 -0.8713
13223SOL    HW141110   6.442   4.790   1.590 -0.0319 -0.3490 -1.4937
13223SOL    HW241111   6.446   4.642   1.622  0.6336  0.3444  2.1868
13224SOL     OW41112   2.181   4.510   9.941  0.1655 -0.4884 -0.2333
13224SOL    HW141113   2.257   4.569   9.947  0.8560 -1.2318 -1.3582
13224SOL    HW241114   2.184   4.459  10.021  1.7667 -1.5521 -0.9262
13225SOL     OW41115   1.388   4.376   8.980  0.1710 -0.5306 -0.3221
13225SOL    HW141116   1.414   4.374   8.888  0.9924 -0.9218 -0.0912
13225SOL    HW241117   1.304   4.329   8.983  0.5822 -1.3053 -0.7350
13226SOL     OW41118   2.480   4.264  10.552 -0.5852 -0.0649 -0.1027
13226SOL    HW141119   2.388   4.281  10.570 -0.9937  0.1834 -2.1240
13226SOL    HW241120   2.515   4.350  10.526  0.4599  0.0243  1.4805
13227SOL     OW41121   1.389   7.507   2.086 -0.0867 -0.2057  0.0527
13227SOL    HW141122   1.413   7.417   2.110  0.8770  0.3539  1.2605
13227SOL    HW241123   1.378   7.503   1.991  0.6482 -1.4489 -0.0110
13228SOL     OW41124   4.589   1.280  11.430  0.1101  0.0712 -0.7587
13228SOL    HW141125   4.511   1.314  11.386 -0.4632  0.3609  0.4382
13228SOL    HW241126   4.661   1.305  11.372 -0.5266  1.2455 -1.0933
13229SOL     OW41127   2.845   3.690   2.051  0.0209  0.0965 -0.0797
13229SOL    HW141128   2.770   3.728   2.097 -0.6658 -0.8800 -0.3493
13229SOL    HW241129   2.920   3.741   2.080 -0.7460  1.0833  0.2145
13230SOL     OW41130   0.151   2.947   8.976 -0.3281 -0.0150 -0.1106
13230SOL    HW141131   0.069   2.974   8.935 -0.2346 -0.4094 -0.5598
13230SOL    HW241132   0.220   2.985   8.921 -0.1766  1.6132  1.1014
13231SOL     OW41133   4.779   7.741   5.147 -0.3616  0.1687 -0.1137
13231SOL    HW141134   4.872   7.765   5.147 -1.0311  3.1467  0.6267
13231SOL    HW241135   4.741   7.792   5.075 -1.6214 -0.2039  0.2550
13232SOL     OW41136   1.461   5.857   5.207  0.0201  0.7006  0.3451
13232SOL    HW141137   1.512   5.890   5.281 -0.2243 -0.1559  0.9006
13232SOL    HW241138   1.373   5.892   5.221 -0.1908 -0.0166  0.8273
13233SOL     OW41139   5.044   4.656   1.089  0.0195  0.2275 -0.1061
13233SOL    HW141140   5.068   4.748   1.100  0.1567  0.0960  0.7147
13233SOL    HW241141   4.982   4.639   1.160 -1.7218  0.2765 -1.5292
13234SOL     OW41142   3.992   4.877   1.860 -0.1565  0.3555  0.2420
13234SOL    HW141143   4.000   4.902   1.952  0.5883  0.0333  0.2742
13234SOL    HW241144   4.046   4.798   1.852  0.3882  0.7985 -0.6282
13235SOL     OW41145   1.482   4.650  12.289  0.0354  0.0673 -0.8305
13235SOL    HW141146   1.503   4.674  12.199 -0.1684  2.3221 -0.3456
13235SOL    HW241147   1.567   4.637  12.331  0.1466 -3.2458 -1.7873
13236SOL     OW41148   6.425   7.176  10.251 -0.2466  0.5362  0.3629
13236SOL    HW141149   6.359   7.244  10.258 -0.4502  0.4517 -0.6237
13236SOL    HW241150   6.508   7.224  10.243 -0.5113  0.7592 -1.7984
13237SOL     OW41151   5.326   7.820   3.322  0.1434  0.1642  0.3260
13237SOL    HW141152   5.311   7.766   3.400  0.0086  0.3074  0.4028
13237SOL    HW241153   5.401   7.875   3.345 -1.4380  2.0309  1.3715
13238SOL     OW41154   2.242   2.424   8.003 -0.4999 -0.2878 -0.0289
13238SOL    HW141155   2.257   2.357   7.937  0.3619 -0.6182  0.4856
13238SOL    HW241156   2.300   2.400   8.075 -1.3103  0.1478  0.7893
13239SOL     OW41157   6.725   4.248   1.105 -0.4977 -0.0799  0.1087
13239SOL    HW141158   6.776   4.296   1.040 -0.4853  0.8911  0.8069
13239SOL    HW241159   6.664   4.313   1.140 -2.8545 -1.4017 -1.2831
13240SOL     OW41160   2.094   0.703   4.677 -0.1755 -0.0438 -0.5995
13240SOL    HW141161   2.038   0.682   4.751 -1.4022  0.0222 -1.4808
13240SOL    HW241162   2.133   0.619   4.652  0.2608 -0.0614  0.1164
13241SOL     OW41163   7.771   6.017  10.146 -0.4038 -0.5319 -0.0629
13241SOL    HW141164   7.716   6.088  10.112  0.2972  0.3625  0.6202
13241SOL    HW241165   7.713   5.941  10.147 -1.9422  0.5705  1.5032
13242SOL     OW41166   3.851   6.047   6.276  0.0432 -0.5045  0.1936
13242SOL    HW141167   3.854   6.100   6.197  0.5270 -0.7216  0.0594
13242SOL    HW241168   3.943   6.022   6.292 -0.1857 -1.3803  0.1889
13243SOL     OW41169   1.330   3.742   3.667  0.4369  0.0616 -0.0136
13243SOL    HW141170   1.269   3.802   3.624 -1.5815 -1.8516 -0.0112
13243SOL    HW241171   1.332   3.770   3.759  0.4350  0.7884 -0.2292
13244SOL     OW41172   2.405   7.557  11.857 -1.0945  0.2305  0.8435
13244SOL    HW141173   2.488   7.548  11.904 -0.2095 -0.0268 -0.6948
13244SOL    HW241174   2.342   7.510  11.911 -0.2120  0.2833  1.9644
13245SOL     OW41175   2.347   0.903   3.264  0.0091  0.7944  0.6192
13245SOL    HW141176   2.383   0.977   3.214  0.7456  1.2787  1.8031
13245SOL    HW241177   2.416   0.883   3.328  0.2136 -1.5224 -0.2473
13246SOL     OW41178   0.420   5.912   9.744 -0.0002 -0.2497 -0.2962
13246SOL    HW141179   0.385   5.977   9.805  0.4252 -0.6624  0.4027
13246SOL    HW241180   0.514   5.909   9.764 -0.0112 -1.0412 -0.3570
13247SOL     OW41181   0.113   0.259   1.206 -0.3579 -0.0854 -0.2563
13247SOL    HW141182   0.200   0.261   1.246  0.5443 -2.8772 -1.8320
13247SOL    HW241183   0.129   0.253   1.112 -2.2620 -0.7241 -0.5898
13248SOL     OW41184   0.167   1.033  11.557  0.2432  0.4360  0.1444
13248SOL    HW141185   0.205   0.947  11.543 -0.7134 -0.0037  0.1671
13248SOL    HW241186   0.072   1.018  11.555  0.0658  1.4042  0.6391
13249SOL     OW41187   2.910   0.876   3.285 -0.1318  0.2794 -0.3669
13249SOL    HW141188   2.990   0.877   3.232 -0.5695 -2.4151 -1.2456
13249SOL    HW241189   2.843   0.910   3.226 -0.0884  0.0440 -0.5561
13250SOL     OW41190   5.168   4.248   6.909 -0.1493  0.2537  0.2252
13250SOL    HW141191   5.236   4.228   6.974  1.8115 -2.6342 -2.4435
13250SOL    HW241192   5.174   4.342   6.897  0.6011  0.6504  2.8919
13251SOL     OW41193   4.814   1.718  10.460 -0.0251  0.2413  0.1105
13251SOL    HW141194   4.870   1.725  10.382 -1.4153  1.0354 -0.8670
13251SOL    HW241195   4.725   1.718  10.425 -0.6830  0.4800  1.7092
13252SOL     OW41196   2.626   3.445   8.917  1.0701 -0.3735  0.7253
13252SOL    HW141197   2.683   3.497   8.859 -2.0189  2.1192 -0.3618
13252SOL    HW241198   2.643   3.481   9.005 -0.4820  2.1551  0.0804
13253SOL     OW41199   3.785   1.928   3.811  0.4479  0.1888  0.7807
13253SOL    HW141200   3.848   1.947   3.881  0.8738  0.2240  0.3919
13253SOL    HW241201   3.814   1.982   3.738 -0.9684  1.4586  1.0829
13254SOL     OW41202   7.359   4.061   3.167 -0.2199 -0.0209  0.0963
13254SOL    HW141203   7.392   3.981   3.208  1.1871  1.9900  3.2999
13254SOL    HW241204   7.287   4.032   3.112  1.4895 -3.6741 -0.5169
13255SOL     OW41205   7.798   2.041   1.957  0.1874 -0.1274  0.1998
13255SOL    HW141206   7.731   2.029   1.890  1.4070 -0.4368 -1.0320
13255SOL    HW241207   7.806   2.136   1.968  0.3944 -0.0504 -0.5640
13256SOL     OW41208   7.908   7.045   3.119  0.0972  0.9226  0.0433
13256SOL    HW141209   7.920   7.138   3.098  1.2277  1.0591  1.1541
13256SOL    HW241210   7.948   7.035   3.205  1.6449 -0.9585 -0.8107
13257SOL     OW41211   0.891   7.297   4.888 -0.2523  0.2750  0.0818
13257SOL    HW141212   0.930   7.379   4.917 -0.9386  1.2618 -1.6264
13257SOL    HW241213   0.838   7.321   4.811 -1.1725 -1.6205  0.0558
13258SOL     OW41214   2.361   2.619  10.644  0.3690 -0.3941  0.0601
13258SOL    HW141215   2.334   2.624  10.736 -0.3334  0.6311 -0.1876
13258SOL    HW241216   2.417   2.541  10.640 -1.1184 -1.5773  0.9737
13259SOL     OW41217   6.443   5.877   2.279  0.1508  0.4722  0.1383
13259SOL    HW141218   6.390   5.897   2.202 -2.7783 -1.8545  1.3585
13259SOL    HW241219   6.494   5.800   2.253 -1.3477 -0.7372  0.6394
13260SOL     OW41220   5.377   2.123   1.223  0.0239 -0.3306  0.0135
13260SOL    HW141221   5.454   2.075   1.194  0.1160 -0.2558  0.1292
13260SOL    HW241222   5.329   2.061   1.278 -0.1345 -0.4620 -0.2772
13261SOL     OW41223   1.604   2.365   2.045  0.0361  0.3197 -0.5199
13261SOL    HW141224   1.653   2.291   2.010 -0.3200 -1.2213  1.9875
13261SOL    HW241225   1.519   2.360   2.001  1.2067  1.6151 -3.1619
13262SOL     OW41226   2.695   0.767   8.735 -0.4332  0.2033  0.3305
13262SOL    HW141227   2.755   0.764   8.810 -1.6746  1.3401  1.4228
13262SOL    HW241228   2.621   0.818   8.766 -1.4280 -0.1299 -1.3880
13263SOL     OW41229   2.072   3.853   6.109 -0.2183 -0.5262 -0.4417
13263SOL    HW141230   2.079   3.885   6.019 -0.2179 -1.2812 -0.7252
13263SOL    HW241231   1.997   3.793   6.106  0.0683 -0.9118 -0.0599
13264SOL     OW41232   0.826   7.712   0.783 -0.0427 -0.6490 -0.1894
13264SOL    HW141233   0.799   7.790   0.832  0.8017 -1.1834  1.1956
13264SOL    HW241234   0.919   7.725   0.768  0.0473 -1.2714 -0.1775
13265SOL     OW41235   7.941   7.469   9.993  1.1402  0.0246 -0.4050
13265SOL    HW141236   7.959   7.561  10.015 -0.8479  0.4414 -0.3226
13265SOL    HW241237   7.926   7.426  10.077 -3.2523  0.9077 -0.4905
13266SOL     OW41238   7.057   7.879   4.899 -0.6223 -0.1944 -0.6744
13266SOL    HW141239   7.151   7.897   4.907 -0.2437 -1.8488 -1.0812
13266SOL    HW241240   7.015   7.964   4.917  0.9011  0.4141  0.2053
13267SOL     OW41241   6.484   0.034   2.018  0.5877 -0.5953  0.2340
13267SOL    HW141242   6.432   0.032   1.937  0.5422 -0.1491  0.2496
13267SOL    HW241243   6.540   0.111   2.008 -1.9788  1.7512  2.1909
13268SOL     OW41244   5.858   1.473   6.983  0.1017 -0.8067 -0.5581
13268SOL    HW141245   5.830   1.558   6.951  1.2625 -0.3022 -0.2828
13268SOL    HW241246   5.925   1.493   7.049 -0.9633 -1.8598  0.9129
13269SOL     OW41247   4.341   2.120   3.882 -0.3490 -0.1398 -0.4386
13269SOL    HW141248   4.311   2.031   3.900  0.4416 -1.2541 -3.8703
13269SOL    HW241249   4.264   2.165   3.847 -1.0974  1.0607  2.4845
13270SOL     OW41250   3.471   0.922  10.186 -0.4769  0.5656  0.6800
13270SOL    HW141251   3.499   1.012  10.200 -1.6158  1.0966 -0.2376
13270SOL    HW241252   3.396   0.929  10.126 -0.3079 -1.0163  0.2291
13271SOL     OW41253   7.661   0.444   2.081 -0.0866 -0.2612  0.0029
13271SOL    HW141254   7.679   0.435   2.175 -0.0728 -1.0209 -0.0727
13271SOL    HW241255   7.567   0.428   2.072 -0.4031  1.3553  0.0776
13272SOL     OW41256   1.994   3.386   2.576  0.1915  0.2757  0.2714
13272SOL    HW141257   1.924   3.322   2.583  0.1270  0.5103  2.4820
13272SOL    HW241258   1.950   3.471   2.586  0.3337  0.7068 -2.1585
13273SOL     OW41259   3.136   3.727   2.641 -0.1626  0.3651 -0.6101
13273SOL    HW141260   3.210   3.673   2.613  0.2813 -0.4930  1.9928
13273SOL    HW241261   3.176   3.809   2.670 -0.2777  0.1228  0.2502
13274SOL     OW41262   7.595   6.453  10.916 -0.5667 -0.2494 -0.5096
13274SOL    HW141263   7.502   6.439  10.934 -0.7975  0.5953 -0.9747
13274SOL    HW241264   7.600   6.461  10.821 -0.0847  0.1695 -0.4560
13275SOL     OW41265   7.229   0.877   7.192  0.9404  0.3940 -0.0630
13275SOL    HW141266   7.171   0.801   7.205 -0.5448  1.6269  0.9169
13275SOL    HW241267   7.317   0.840   7.187  0.0326 -1.6929 -2.8537
13276SOL     OW41268   1.236   5.494   9.104  0.5484  0.2959  0.3954
13276SOL    HW141269   1.155   5.445   9.093  1.2351 -1.1595  1.4662
13276SOL    HW241270   1.247   5.502   9.198  2.1129 -0.4207  0.3145
13277SOL     OW41271   5.073   6.327   6.165  0.0603 -0.2440 -0.0696
13277SOL    HW141272   4.994   6.274   6.153 -1.3689  1.2710  1.9687
13277SOL    HW241273   5.141   6.264   6.189 -1.3666 -1.2886  1.4409
13278SOL     OW41274   7.186   5.109   6.960 -0.3991  0.3214  0.5168
13278SOL    HW141275   7.105   5.113   7.011 -0.4282 -0.0644  0.4989
13278SOL    HW241276   7.163   5.059   6.882  0.4490 -1.8628  1.6020
13279SOL     OW41277   2.695   1.661   6.191 -0.4510 -0.2828  0.0127
13279SOL    HW141278   2.658   1.744   6.161 -1.4222 -0.7132 -0.0270
13279SOL    HW241279   2.716   1.613   6.111  1.3783  0.4357  0.0152
13280SOL     OW41280   7.235   2.286   4.657  0.6255 -0.4779 -0.4845
13280SOL    HW141281   7.251   2.204   4.609  0.5326  0.5938 -2.4706
13280SOL    HW241282   7.318   2.334   4.651  0.5935 -0.2950  0.4090
13281SOL     OW41283   4.067   1.491   5.391  0.6618 -0.8899 -0.0209
13281SOL    HW141284   4.021   1.569   5.422  0.0401 -0.9659 -0.7026
13281SOL    HW241285   4.156   1.500   5.425 -0.1190 -1.2881  2.3290
13282SOL     OW41286   7.658   3.864   2.947  0.0127  0.3675 -0.2452
13282SOL    HW141287   7.609   3.841   2.868 -0.9340  1.8016 -0.1227
13282SOL    HW241288   7.741   3.900   2.914  0.3872 -0.6789 -0.4976
13283SOL     OW41289   4.670   3.059   2.563  0.2082 -0.5138  0.2080
13283SOL    HW141290   4.580   3.028   2.567  0.0402 -0.0600  0.0496
13283SOL    HW241291   4.662   3.154   2.561  0.6188 -0.4780 -1.3452
13284SOL     OW41292   5.074   4.666   5.404 -0.4513  0.0363 -0.0611
13284SOL    HW141293   4.996   4.720   5.416  1.4349  3.1817 -0.7539
13284SOL    HW241294   5.062   4.625   5.319 -1.5123  0.1317  0.0279
13285SOL     OW41295   2.454   3.692   1.559  0.2516 -0.0673 -0.1209
13285SOL    HW141296   2.481   3.601   1.550 -0.3547 -0.1642 -1.1301
13285SOL    HW241297   2.511   3.740   1.498  0.7618  0.2752  0.6164
13286SOL     OW41298   4.582   0.407   0.981 -0.1766  0.0785 -0.1243
13286SOL    HW141299   4.654   0.465   1.005  1.1951 -1.7790  0.4870
13286SOL    HW241300   4.622   0.320   0.977 -2.4386 -1.0590  0.4886
13287SOL     OW41301   2.319   4.221   2.698  0.3640  0.8026 -0.6880
13287SOL    HW141302   2.232   4.255   2.675 -0.8845 -2.4749 -1.3304
13287SOL    HW241303   2.375   4.299   2.701 -2.6293  3.1320  0.2193
13288SOL     OW41304   4.877   2.963   3.479 -0.1283  0.5013  0.1563
13288SOL    HW141305   4.872   2.957   3.384  0.3727  3.4888 -0.1354
13288SOL    HW241306   4.966   2.934   3.501  0.5470  1.9629 -0.5540
13289SOL     OW41307   7.859   3.768   4.787 -0.4065  0.4897  0.1677
13289SOL    HW141308   7.791   3.734   4.846  0.8864  0.3486  1.6479
13289SOL    HW241309   7.822   3.849   4.752 -1.8056 -0.1959 -0.0082
13290SOL     OW41310   2.722   7.163   5.039  0.7308  0.2665 -0.1125
13290SOL    HW141311   2.807   7.208   5.032  1.9971 -1.8643  0.4359
13290SOL    HW241312   2.718   7.109   4.960 -1.3260  2.1357 -1.3849
13291SOL     OW41313   2.433   1.021  11.634 -0.2817  0.5124 -0.1153
13291SOL    HW141314   2.421   0.937  11.591 -0.2076  0.9000 -0.9182
13291SOL    HW241315   2.509   1.008  11.691 -2.0235 -0.8192  2.0673
13292SOL     OW41316   5.973   5.483  11.536  0.0902  0.3192 -0.1988
13292SOL    HW141317   5.977   5.543  11.611  2.7756  0.7671 -0.5809
13292SOL    HW241318   6.037   5.415  11.558 -2.4064 -2.1311 -0.0861
13293SOL     OW41319   3.209   1.634   0.855  0.1897  0.3428  0.4535
13293SOL    HW141320   3.173   1.694   0.790 -1.1135  0.3647  1.1555
13293SOL    HW241321   3.274   1.686   0.902 -1.9571  1.7934  2.0538
13294SOL     OW41322   7.222   1.454   8.321  0.0691 -0.5513 -0.3754
13294SOL    HW141323   7.243   1.374   8.274  0.6267 -0.4597 -0.2855
13294SOL    HW241324   7.253   1.524   8.264  4.4875 -0.4545  1.7507
13295SOL     OW41325   7.082   3.408   0.242 -0.3400 -0.6962 -0.2478
13295SOL    HW141326   7.074   3.375   0.153  0.7247  0.7370 -0.9075
13295SOL    HW241327   6.992   3.410   0.275 -0.7696 -1.0234 -1.3754
13296SOL     OW41328   0.262   5.429  10.467  0.0741 -0.1419  0.1431
13296SOL    HW141329   0.295   5.366  10.404 -0.5224  0.7811 -1.1458
13296SOL    HW241330   0.329   5.498  10.471 -1.1081  1.2175 -1.6990
13297SOL     OW41331   1.878   6.757   5.455 -0.1146  0.0908  0.3265
13297SOL    HW141332   1.924   6.709   5.386 -0.2819 -0.4572  0.5902
13297SOL    HW241333   1.946   6.781   5.517 -0.1013 -0.2192  0.4306
13298SOL     OW41334   6.192   0.402   1.873  0.6217  0.0485  0.2409
13298SOL    HW141335   6.258   0.335   1.890  0.7317 -0.6544 -2.5382
13298SOL    HW241336   6.237   0.484   1.894  1.1786 -0.5872  1.7075
13299SOL     OW41337   3.603   0.792   8.334 -0.1620 -0.1605  0.5800
13299SOL    HW141338   3.692   0.792   8.371  0.1284  0.4362 -0.0924
13299SOL    HW241339   3.547   0.767   8.407  0.3246  1.6628  1.6413
13300SOL     OW41340   5.347   3.639   0.919  0.3485 -0.7673 -0.2687
13300SOL    HW141341   5.389   3.725   0.918  0.9475 -1.0577 -1.2181
13300SOL    HW241342   5.325   3.621   0.828 -0.6289 -1.2227  0.0349
13301SOL     OW41343   0.563   4.159   8.703 -0.1168  0.0227 -0.0201
13301SOL    HW141344   0.657   4.172   8.688 -0.1666  0.8075  0.2841
13301SOL    HW241345   0.539   4.086   8.646  0.5689  0.1760 -0.5149
13302SOL     OW41346   0.790   0.846   0.864 -0.1453  0.1170  0.1805
13302SOL    HW141347   0.734   0.777   0.830  0.1927 -0.1496  0.1591
13302SOL    HW241348   0.830   0.886   0.787 -2.0355  1.8432 -0.0009
13303SOL     OW41349   7.880   0.109   2.854  0.1822 -0.2708  0.2261
13303SOL    HW141350   7.831   0.031   2.829  0.0405  0.0416 -0.5352
13303SOL    HW241351   7.834   0.181   2.809  0.6128  0.1772  0.4900
13304SOL     OW41352   7.371   3.278   6.277 -0.3335 -0.4273  0.2742
13304SOL    HW141353   7.324   3.268   6.360  0.6286 -2.9307  0.6088
13304SOL    HW241354   7.446   3.334   6.299 -1.4674  1.0949  0.4308
13305SOL     OW41355   5.961   0.816   7.947 -0.0426 -0.3065  0.2312
13305SOL    HW141356   5.948   0.795   7.855 -1.1914  0.4007  0.2083
13305SOL    HW241357   6.056   0.823   7.958  0.0653  0.5694 -1.1180
13306SOL     OW41358   4.149   6.904   2.038  0.3996  0.9140  0.3187
13306SOL    HW141359   4.080   6.838   2.044  0.7767  0.5612  0.8228
13306SOL    HW241360   4.130   6.965   2.109  0.0808  1.3262 -0.1154
13307SOL     OW41361   4.155   1.476   9.486  0.8088  0.0257  0.0064
13307SOL    HW141362   4.070   1.493   9.446  0.5149 -0.7255  0.2868
13307SOL    HW241363   4.196   1.562   9.493 -0.1530  0.4698  0.3579
13308SOL     OW41364   2.595   6.013   4.006  0.0607 -0.1927  0.6717
13308SOL    HW141365   2.592   5.932   4.056 -1.5401 -0.8368 -0.3849
13308SOL    HW241366   2.595   5.985   3.915  1.7278  0.9725  0.2814
13309SOL     OW41367   6.086   1.153   6.495  0.1175 -0.5330 -0.0167
13309SOL    HW141368   6.019   1.216   6.470  0.4551  0.1031  0.6756
13309SOL    HW241369   6.058   1.071   6.453  0.2780  0.3204 -1.8843
13310SOL     OW41370   3.818   6.695   3.713  0.0615  0.0175 -0.1610
13310SOL    HW141371   3.893   6.666   3.662  0.8102  1.0802  0.2768
13310SOL    HW241372   3.857   6.733   3.792 -0.8120  2.0007 -0.6115
13311SOL     OW41373   1.758   4.023   6.715 -0.2550  0.2069  0.3519
13311SOL    HW141374   1.726   3.964   6.647 -0.7993 -0.3181  1.0476
13311SOL    HW241375   1.755   4.110   6.675  0.9068 -0.2443 -0.8192
13312SOL     OW41376   0.205   4.476  10.018 -0.2833 -0.3640 -0.2445
13312SOL    HW141377   0.193   4.399  10.073 -1.0285  1.1862  1.8602
13312SOL    HW241378   0.270   4.529  10.065 -1.9504  1.6325 -0.0974
13313SOL     OW41379   7.593   3.804  12.224 -0.4453  0.3738  0.1744
13313SOL    HW141380   7.526   3.744  12.191 -0.5688  1.2343 -1.2313
13313SOL    HW241381   7.564   3.826  12.313 -1.3917 -0.1959  0.0186
13314SOL     OW41382   3.545   4.734  10.579  0.2096 -0.3513  0.6202
13314SOL    HW141383   3.462   4.764  10.615 -0.0097 -0.0355 -0.1355
13314SOL    HW241384   3.555   4.644  10.612 -0.9972 -0.8135 -0.2435
13315SOL     OW41385   6.099   1.947   8.516  0.4264  0.2612  0.0934
13315SOL    HW141386   6.056   1.952   8.601 -0.1169 -1.7539 -0.0065
13315SOL    HW241387   6.084   2.032   8.476  1.8230  1.7536  2.4954
13316SOL     OW41388   2.364   3.317   4.896  0.1854 -0.0508 -0.0293
13316SOL    HW141389   2.290   3.262   4.873  0.5165 -0.5026 -0.0250
13316SOL    HW241390   2.390   3.288   4.983  1.3889 -1.0343 -0.6797
13317SOL     OW41391   4.789   0.371   0.556 -0.7902 -0.3491 -0.0563
13317SOL    HW141392   4.830   0.382   0.641 -1.6588  0.5509  0.2646
13317SOL    HW241393   4.809   0.453   0.509 -2.2193  0.1326  0.1282
13318SOL     OW41394   4.628   0.078   6.569 -0.1170  0.4941 -0.4494
13318SOL    HW141395   4.589  -0.002   6.533  0.3309 -0.6009  1.3928
13318SOL    HW241396   4.553   0.133   6.591 -0.6357 -0.8288  1.3504
13319SOL     OW41397   1.826   4.348   3.497  0.2512 -0.1273  0.8102
13319SOL    HW141398   1.879   4.335   3.576  0.5832  0.6307  0.7167
13319SOL    HW241399   1.883   4.396   3.437 -0.1822 -0.2294  0.3078
13320SOL     OW41400   7.319   1.654   6.332  0.3326 -0.0966 -0.0575
13320SOL    HW141401   7.324   1.645   6.427 -1.4220  0.0357  0.0845
13320SOL    HW241402   7.243   1.710   6.317  0.3357 -0.4442 -1.5622
13321SOL     OW41403   3.496   1.648   5.554 -0.2576 -0.8340  0.6064
13321SOL    HW141404   3.510   1.736   5.518 -2.9225 -1.2344 -1.8153
13321SOL    HW241405   3.466   1.662   5.644  0.0012  0.6849  0.4704
13322SOL     OW41406   3.905   3.503   7.808  0.0246  0.0335  0.1626
13322SOL    HW141407   3.874   3.424   7.763 -1.5523  1.5361 -1.5485
13322SOL    HW241408   3.847   3.512   7.883  0.6325 -0.7595  0.7464
13323SOL     OW41409   0.229   2.176  10.038 -0.2575  0.3055  0.0088
13323SOL    HW141410   0.281   2.229  10.098 -3.9373  1.7671  2.2193
13323SOL    HW241411   0.167   2.237   9.999  0.5471 -1.0299 -3.7952
13324SOL     OW41412   2.218   0.962   8.105 -0.2603 -0.5044 -0.1480
13324SOL    HW141413   2.273   0.933   8.178  0.8728 -1.6821 -1.4023
13324SOL    HW241414   2.219   0.888   8.044  0.4779  1.1600 -2.2725
13325SOL     OW41415   1.138   4.298   3.435 -0.3696  0.3063  0.0256
13325SOL    HW141416   1.184   4.298   3.519 -0.9298  1.2180  0.3459
13325SOL    HW241417   1.045   4.296   3.458 -0.5296  0.4696 -0.5813
13326SOL     OW41418   1.677   6.996   8.344  0.3008 -0.3186  0.2187
13326SOL    HW141419   1.589   6.967   8.369  1.1348 -2.2263  1.1109
13326SOL    HW241420   1.711   7.040   8.421 -0.4238  1.9482 -0.6677
13327SOL     OW41421   6.744   3.819   2.831  0.2939  0.2673  0.8008
13327SOL    HW141422   6.674   3.861   2.780 -0.5502  0.1592  1.8261
13327SOL    HW241423   6.804   3.785   2.765 -0.3645  0.7977 -0.1049
13328SOL     OW41424   0.756   1.881   0.631  0.8169  0.5513  0.2407
13328SOL    HW141425   0.802   1.955   0.670  0.6573  0.6447  0.2545
13328SOL    HW241426   0.825   1.818   0.609  0.8806  0.3950  0.8926
13329SOL     OW41427   2.991   1.353  12.079  0.0153 -0.2436  0.5969
13329SOL    HW141428   3.051   1.280  12.094  0.5585 -0.1171 -0.8024
13329SOL    HW241429   3.038   1.430  12.112  0.2072 -0.2796  0.4091
13330SOL     OW41430   2.004   6.058  11.000 -0.1381 -0.1934 -0.7887
13330SOL    HW141431   2.005   6.113  11.079  0.1173  2.0809 -2.2725
13330SOL    HW241432   2.079   6.088  10.949 -1.0541 -0.6736 -2.4969
13331SOL     OW41433   1.509   0.004  11.430  0.5259 -0.1909 -0.1578
13331SOL    HW141434   1.585  -0.035  11.475  0.7653 -0.4447 -0.7687
13331SOL    HW241435   1.434  -0.024  11.482  0.9732  2.2295  2.0542
13332SOL     OW41436   6.761   6.902   9.115 -0.1051  0.6542  0.1117
13332SOL    HW141437   6.803   6.969   9.061  1.3376 -1.4740 -1.5815
13332SOL    HW241438   6.678   6.883   9.070  0.1771  0.2923 -0.2717
13333SOL     OW41439   6.735   1.255   8.856 -0.4906 -0.3558  0.2967
13333SOL    HW141440   6.785   1.202   8.794 -0.1534 -0.5703  0.7453
13333SOL    HW241441   6.678   1.309   8.802  0.5534  0.2272 -0.2467
13334SOL     OW41442   1.166   3.546   3.061 -0.4541  0.2843 -0.2468
13334SOL    HW141443   1.212   3.624   3.030 -0.7234  0.0045 -1.4384
13334SOL    HW241444   1.171   3.550   3.156  0.7462  1.0184 -0.3250
13335SOL     OW41445   4.903   4.636   7.330 -0.3671 -0.0223 -0.5649
13335SOL    HW141446   4.856   4.681   7.400  0.1427 -0.8677  0.3582
13335SOL    HW241447   4.854   4.656   7.251 -1.9562 -0.3867  0.2792
13336SOL     OW41448   6.116   5.685   4.321 -0.1399 -0.2433  0.5597
13336SOL    HW141449   6.021   5.673   4.316 -0.2281  0.5034  0.2879
13336SOL    HW241450   6.153   5.607   4.281 -0.6604 -0.0185 -0.3745
13337SOL     OW41451   1.650   2.671   6.831 -0.3716 -0.1600  0.1925
13337SOL    HW141452   1.582   2.701   6.770  0.0437  1.6349  0.5403
13337SOL    HW241453   1.728   2.660   6.777 -0.2611  0.4570  0.2142
13338SOL     OW41454   7.218   2.617   3.653  0.4425 -0.2106 -0.4184
13338SOL    HW141455   7.273   2.685   3.615 -0.3425  0.2319 -0.7799
13338SOL    HW241456   7.209   2.552   3.584  0.7095 -0.4057 -0.2725
13339SOL     OW41457   5.181   6.360   3.279  0.6418  0.5701  0.4634
13339SOL    HW141458   5.188   6.310   3.360  2.5230 -1.8471 -1.0498
13339SOL    HW241459   5.088   6.357   3.257  0.5111 -1.2255  1.1039
13340SOL     OW41460   3.439   7.676  12.343  0.0337 -0.0096  0.0849
13340SOL    HW141461   3.402   7.627  12.417  0.0151  0.3948  0.3497
13340SOL    HW241462   3.419   7.767  12.363  2.2183  0.3606  0.8680
13341SOL     OW41463   5.587   5.251   7.519 -0.2101 -0.1345 -0.4008
13341SOL    HW141464   5.679   5.272   7.534 -0.3196  0.3795 -0.4157
13341SOL    HW241465   5.575   5.165   7.559  0.3095 -0.2694 -0.5251
13342SOL     OW41466   1.066   5.605  12.346  0.0075 -0.0719  0.1975
13342SOL    HW141467   1.049   5.685  12.396  0.8453 -0.2343  0.7602
13342SOL    HW241468   0.992   5.548  12.368 -0.1457  0.2296  0.4757
13343SOL     OW41469   0.468   1.798  10.919  0.0878 -0.7038  0.0922
13343SOL    HW141470   0.475   1.754  11.004  1.0609 -2.9322 -1.0437
13343SOL    HW241471   0.537   1.864  10.921 -0.4147 -0.1765  1.2931
13344SOL     OW41472   5.244   1.509   3.061 -0.0640 -0.8197 -0.2837
13344SOL    HW141473   5.196   1.573   3.009 -1.2690 -1.7122 -0.3127
13344SOL    HW241474   5.335   1.518   3.033 -0.4406 -0.1147 -1.3118
13345SOL     OW41475   7.466   4.673   2.899  0.0773  0.6585  0.3448
13345SOL    HW141476   7.465   4.752   2.954 -0.1381  2.0190 -1.5233
13345SOL    HW241477   7.380   4.634   2.913  0.2036  0.6905  1.3305
13346SOL     OW41478   4.256   3.138  11.990 -0.0086 -0.5213 -0.3587
13346SOL    HW141479   4.316   3.207  12.020 -0.6928 -0.6982  1.5980
13346SOL    HW241480   4.298   3.057  12.017  0.3284 -0.8419 -1.7853
13347SOL     OW41481   2.615   3.032   2.175  0.2095  0.0123  0.0943
13347SOL    HW141482   2.519   3.026   2.170  0.2136 -0.1331  0.2093
13347SOL    HW241483   2.643   3.043   2.084  0.0512  0.5330  0.1004
13348SOL     OW41484   6.826   4.479   1.252 -0.0827 -0.2609  0.6405
13348SOL    HW141485   6.814   4.554   1.311 -0.3721 -0.3166  0.6579
13348SOL    HW241486   6.849   4.407   1.310 -0.0833 -0.2491  0.6555
13349SOL     OW41487   6.281   1.954   7.434  0.8684 -0.1096 -0.1304
13349SOL    HW141488   6.323   1.882   7.386  1.3960 -0.1199  0.3335
13349SOL    HW241489   6.339   2.029   7.422  0.4540  0.1739 -0.3930
13350SOL     OW41490   1.814   5.420   9.197 -0.1000 -0.1682 -0.2054
13350SOL    HW141491   1.745   5.356   9.215 -2.2973  2.3997  1.2160
13350SOL    HW241492   1.799   5.490   9.261  1.6540  2.1427 -2.1459
13351SOL     OW41493   6.361   0.423   6.252  0.5080 -0.5929  0.3160
13351SOL    HW141494   6.346   0.341   6.206 -1.7160  0.5521 -1.2332
13351SOL    HW241495   6.324   0.409   6.339  2.6270 -2.0296  1.0588
13352SOL     OW41496   2.582   5.970   7.824 -0.2403  0.5642  0.8969
13352SOL    HW141497   2.487   5.968   7.834 -0.1542  0.0515  1.7039
13352SOL    HW241498   2.601   6.058   7.790 -1.1195  0.1813 -0.7215
13353SOL     OW41499   4.024   7.710   1.703 -0.7169  0.2633  0.2739
13353SOL    HW141500   4.091   7.728   1.636 -0.5498 -2.1663 -0.2992
13353SOL    HW241501   3.954   7.772   1.683  0.7084  1.8745 -0.0275
13354SOL     OW41502   1.935   4.805  12.171 -0.3355 -0.2181  0.1336
13354SOL    HW141503   1.862   4.858  12.204 -0.8013 -0.6004 -0.2603
13354SOL    HW241504   1.944   4.831  12.080  1.0257  0.9210  0.5730
13355SOL     OW41505   5.312   0.876   9.789 -0.0899  0.5542  0.3855
13355SOL    HW141506   5.320   0.817   9.864  0.6967  1.1845  0.8178
13355SOL    HW241507   5.340   0.961   9.822 -0.1994  0.9470 -0.4987
13356SOL     OW41508   5.562   0.425   0.254 -0.2223  0.0059 -0.1835
13356SOL    HW141509   5.586   0.343   0.211 -0.2869  0.1320 -0.4566
13356SOL    HW241510   5.490   0.460   0.202 -0.3749  0.1024  0.0897
13357SOL     OW41511   3.603   7.373   5.334  0.6239  0.0944  0.2900
13357SOL    HW141512   3.582   7.316   5.408  3.4971  0.7656  1.8049
13357SOL    HW241513   3.569   7.328   5.257 -0.9471 -1.5028  1.8375
13358SOL     OW41514   7.966   5.667   1.461 -0.3814 -0.2571  0.1157
13358SOL    HW141515   8.035   5.601   1.467  0.7810  1.0115  1.5274
13358SOL    HW241516   7.891   5.621   1.422  1.3551 -1.5769 -1.8429
13359SOL     OW41517   1.045   6.947   7.332  0.3419 -0.2493 -0.2393
13359SOL    HW141518   0.984   6.984   7.267 -0.4441  0.7989  1.0397
13359SOL    HW241519   1.130   6.949   7.288 -0.4198 -1.1854 -1.8511
13360SOL     OW41520   4.550   6.665   3.192  0.0634 -0.6254 -0.5972
13360SOL    HW141521   4.521   6.619   3.113  0.2856 -1.5290 -0.1645
13360SOL    HW241522   4.479   6.652   3.255 -0.3119  0.4682 -0.7768
13361SOL     OW41523   7.159   2.498   9.419  0.0336  0.3972 -0.0601
13361SOL    HW141524   7.123   2.410   9.410 -0.2430  0.6664 -2.0042
13361SOL    HW241525   7.132   2.526   9.506 -2.0337 -0.4930 -0.3477
13362SOL     OW41526   0.451   3.141   3.196 -0.5381  0.2287  0.2374
13362SOL    HW141527   0.504   3.066   3.222 -3.5107 -1.3655  2.2859
13362SOL    HW241528   0.419   3.119   3.108  0.1106  0.0167  0.0477
13363SOL     OW41529   7.518   5.916   0.632  0.4963 -0.0874  0.0670
13363SOL    HW141530   7.555   5.999   0.664  2.2812 -0.6595 -0.3675
13363SOL    HW241531   7.535   5.855   0.704 -1.6658  0.0790  0.7819
13364SOL     OW41532   6.689   2.712   2.340 -0.5150 -0.0589  0.1382
13364SOL    HW141533   6.721   2.678   2.424  0.0637  2.6846  1.1120
13364SOL    HW241534   6.768   2.743   2.296 -0.7438 -1.9019 -1.7392
13365SOL     OW41535   1.262   4.051   4.080  0.0789 -0.3541 -0.5171
13365SOL    HW141536   1.210   4.127   4.056  0.9433 -0.0474 -1.4788
13365SOL    HW241537   1.253   4.045   4.175 -0.9290  0.2450 -0.5642
13366SOL     OW41538   7.377   5.544  10.073 -0.1021  0.1602 -0.4391
13366SOL    HW141539   7.349   5.523  10.162  0.8185 -1.5375 -0.5014
13366SOL    HW241540   7.468   5.513  10.068  0.3227  1.4715 -1.5682
13367SOL     OW41541   6.183   1.430  10.788 -0.2192 -0.3106 -0.6996
13367SOL    HW141542   6.134   1.492  10.735  0.2581 -0.8640 -1.8140
13367SOL    HW241543   6.135   1.425  10.871 -1.3311  0.0837 -1.3112
13368SOL     OW41544   7.291   5.653   4.519 -0.2139  0.0419  0.6163
13368SOL    HW141545   7.317   5.739   4.552  0.5261 -0.4131  1.2762
13368SOL    HW241546   7.196   5.649   4.533 -0.2663  0.7715  0.5086
13369SOL     OW41547   1.344   2.201   1.270  0.0556 -0.7493  0.3596
13369SOL    HW141548   1.322   2.123   1.322 -2.9070 -0.2044  0.1230
13369SOL    HW241549   1.328   2.174   1.179  0.6279 -0.3459  0.1392
13370SOL     OW41550   6.771   5.127  10.545 -0.2941  0.3684 -0.0464
13370SOL    HW141551   6.752   5.203  10.601  2.2387  0.9115  0.2133
13370SOL    HW241552   6.855   5.148  10.504  1.2160 -2.8278  1.0850
13371SOL     OW41553   0.635   7.813   5.836 -0.4074 -0.0302  0.4254
13371SOL    HW141554   0.680   7.893   5.811 -0.5908 -0.1024 -0.1399
13371SOL    HW241555   0.653   7.751   5.766 -1.3269 -0.0780  0.2107
13372SOL     OW41556   5.565   5.778   8.196 -0.1945  0.2259 -0.3538
13372SOL    HW141557   5.482   5.809   8.230 -0.5670 -1.8045  0.7478
13372SOL    HW241558   5.545   5.749   8.107 -0.3394  1.0151 -0.5820
13373SOL     OW41559   7.632   0.064   9.479  0.9839  0.0896 -0.8188
13373SOL    HW141560   7.568   0.025   9.539  0.9941  0.6606 -0.4244
13373SOL    HW241561   7.584   0.135   9.435  0.3237 -1.6949 -3.1434
13374SOL     OW41562   6.240   0.076  12.248  0.2820 -0.2429 -0.0288
13374SOL    HW141563   6.158   0.080  12.296 -0.0008  0.4173 -0.5431
13374SOL    HW241564   6.293   0.147  12.285  0.1900  0.0481 -0.4385
13375SOL     OW41565   7.838   3.309   4.429  0.9381 -0.8379 -0.1496
13375SOL    HW141566   7.863   3.283   4.341 -2.0262 -1.1076 -1.0045
13375SOL    HW241567   7.907   3.272   4.485  1.2294 -3.4896 -2.0633
13376SOL     OW41568   6.855   2.668   4.047 -0.6470 -0.2178 -0.3441
13376SOL    HW141569   6.846   2.749   4.096 -0.4300  0.0293 -0.7175
13376SOL    HW241570   6.919   2.687   3.979 -1.7580 -0.2179 -1.4336
13377SOL     OW41571   3.142   6.388   3.553  0.4431 -0.3222 -0.5131
13377SOL    HW141572   3.213   6.421   3.498 -0.3072  0.6474 -0.9320
13377SOL    HW241573   3.094   6.466   3.581 -1.8987 -1.0136 -2.2108
13378SOL     OW41574   3.331   7.660   7.938 -0.0673  0.0891  0.4788
13378SOL    HW141575   3.254   7.717   7.939  0.2393  0.4994  1.2730
13378SOL    HW241576   3.398   7.711   7.893  0.1910  0.3332  1.1401
13379SOL     OW41577   1.236   1.933   4.719 -0.5889  0.2293 -0.2639
13379SOL    HW141578   1.191   2.015   4.698 -1.6317 -0.9356 -3.0165
13379SOL    HW241579   1.231   1.882   4.638  0.3374 -2.4267  1.2599
13380SOL     OW41580   6.721   2.592   8.158  0.0431  0.3341  0.1743
13380SOL    HW141581   6.707   2.573   8.251 -3.5891 -1.3484 -0.5122
13380SOL    HW241582   6.664   2.666   8.141 -0.3980 -0.2501 -0.9574
13381SOL     OW41583   6.573   0.742   0.829 -0.1212  0.0785 -0.0722
13381SOL    HW141584   6.581   0.721   0.736 -1.5552  0.0542 -0.2240
13381SOL    HW241585   6.584   0.658   0.873 -0.2007 -0.0398 -0.2754
13382SOL     OW41586   5.954   0.270   0.472  0.7131  0.2544  0.1143
13382SOL    HW141587   5.921   0.338   0.529 -1.0584 -0.0620 -0.4685
13382SOL    HW241588   5.953   0.309   0.384 -2.8166 -1.1901 -0.6551
13383SOL     OW41589   7.923   5.516  10.191 -0.1576 -0.8757  0.1395
13383SOL    HW141590   7.993   5.452  10.175  0.5173 -0.2135  0.3914
13383SOL    HW241591   7.968   5.599  10.199 -0.7499 -0.7124  2.4470
13384SOL     OW41592   3.088   6.142   4.741  0.1286 -0.2948 -0.2252
13384SOL    HW141593   3.174   6.101   4.744  0.3144  0.1062 -0.0158
13384SOL    HW241594   3.076   6.164   4.649 -0.9502 -2.8468 -0.7799
13385SOL     OW41595   5.881   1.142   9.377  0.2038  0.5372  0.3606
13385SOL    HW141596   5.822   1.218   9.379  1.8769  2.1562 -2.9660
13385SOL    HW241597   5.823   1.067   9.377 -1.7639  1.9723 -0.2175
13386SOL     OW41598   1.947   7.605   3.012  0.4837  0.2803  0.5487
13386SOL    HW141599   1.900   7.637   3.089 -0.5761 -0.5213  0.2540
13386SOL    HW241600   1.889   7.539   2.974  1.8270 -0.7270  0.1558
13387SOL     OW41601   6.350   6.686   1.715  0.0022  0.5112 -0.0700
13387SOL    HW141602   6.407   6.679   1.791  0.5833 -0.6642 -0.5852
13387SOL    HW241603   6.274   6.632   1.737  1.3298 -2.0588 -1.2756
13388SOL     OW41604   3.635   3.994   2.191  0.0580 -0.3504 -0.3568
13388SOL    HW141605   3.687   4.003   2.271 -0.0268  1.2968 -0.4467
13388SOL    HW241606   3.696   3.957   2.127 -0.4048 -3.6610  0.9282
13389SOL     OW41607   7.175   7.505   7.016  0.1832 -0.0673 -0.0620
13389SOL    HW141608   7.173   7.518   6.921  2.1794  0.8623 -0.0280
13389SOL    HW241609   7.231   7.575   7.048 -1.4698  0.3980  1.9716
13390SOL     OW41610   6.348   4.546   2.805  0.5807 -0.1336  0.0183
13390SOL    HW141611   6.356   4.585   2.717 -0.7436 -0.0090 -0.0681
13390SOL    HW241612   6.333   4.453   2.788 -3.3191  0.3378 -0.1459
13391SOL     OW41613   5.364   4.488   2.181 -0.6625 -0.0592  0.1804
13391SOL    HW141614   5.352   4.400   2.146  0.7443  0.0759 -0.7313
13391SOL    HW241615   5.444   4.521   2.138 -1.1883  1.6824  0.4335
13392SOL     OW41616   0.109   2.854  10.874  0.2170  0.0517  0.1912
13392SOL    HW141617   0.016   2.866  10.856  0.2650 -0.7750 -0.7022
13392SOL    HW241618   0.138   2.937  10.910 -0.9560  0.1803  0.8742
13393SOL     OW41619   1.781   4.533   2.423 -0.0160 -0.5719  0.6576
13393SOL    HW141620   1.772   4.478   2.345  0.8060 -0.4864  0.4960
13393SOL    HW241621   1.776   4.471   2.496 -1.7610 -0.5468  0.6005
13394SOL     OW41622   4.012   3.696   8.250 -0.0889  0.8880 -0.0276
13394SOL    HW141623   4.001   3.712   8.156  0.9779  0.9758 -0.1578
13394SOL    HW241624   3.926   3.667   8.280 -0.5016  1.0672 -0.9876
13395SOL     OW41625   3.402   6.337  11.495 -0.4567  0.4546  0.2676
13395SOL    HW141626   3.334   6.404  11.500 -0.6935  0.1361  1.7742
13395SOL    HW241627   3.357   6.260  11.460 -1.1254 -0.0313  2.1244
13396SOL     OW41628   0.310   2.750  10.234  0.4997 -0.4690 -0.2529
13396SOL    HW141629   0.352   2.691  10.173  0.3554  0.0713 -0.8833
13396SOL    HW241630   0.335   2.838  10.204  0.4936 -0.1924  0.5053
13397SOL     OW41631   5.219   7.585   4.965  0.0753  0.5005  0.0778
13397SOL    HW141632   5.268   7.667   4.962  0.3099  0.4217  1.3714
13397SOL    HW241633   5.162   7.593   5.041  3.2475 -2.2219  3.0770
13398SOL     OW41634   1.053   6.193   8.474 -0.0727 -0.4704  0.2441
13398SOL    HW141635   0.995   6.120   8.496 -1.6801  1.2163  2.0052
13398SOL    HW241636   0.993   6.267   8.460  1.6143  1.2743  1.7437
13399SOL     OW41637   1.553   5.154   8.316 -0.0546  0.0319  0.3451
13399SOL    HW141638   1.613   5.223   8.341  0.5443 -0.0534 -0.7950
13399SOL    HW241639   1.609   5.080   8.293 -0.6538 -0.5403  0.6821
13400SOL     OW41640   3.336   2.244   1.950 -0.2283  0.0194 -0.3530
13400SOL    HW141641   3.416   2.236   1.898 -0.6556 -0.2960 -0.9667
13400SOL    HW241642   3.302   2.155   1.956  0.7559 -0.2953  2.0116
13401SOL     OW41643   0.822   7.839   6.656  0.5342 -0.1007 -0.1073
13401SOL    HW141644   0.917   7.846   6.641  0.6552 -1.4857 -0.0590
13401SOL    HW241645   0.814   7.780   6.730 -0.3914 -0.3159 -0.3736
13402SOL     OW41646   5.689   6.292   8.066 -0.0556 -0.0183  0.4240
13402SOL    HW141647   5.633   6.234   8.117 -0.8330  0.7735  0.4917
13402SOL    HW241648   5.629   6.344   8.013  0.5948  0.9492  0.5998
13403SOL     OW41649   7.130   4.773  12.426 -0.2425 -0.2976 -0.3998
13403SOL    HW141650   7.111   4.682  12.401  0.2466 -0.9293  1.3781
13403SOL    HW241651   7.044   4.814  12.436 -0.5855 -1.3094  1.2588
13404SOL     OW41652   6.394   6.001   4.992 -0.0506 -0.3482  0.1632
13404SOL    HW141653   6.462   6.065   4.970  0.3690 -1.0754 -0.7627
13404SOL    HW241654   6.311   6.048   4.979  0.2572  0.5185  1.2151
13405SOL     OW41655   0.067   0.080   3.224  0.0832  0.3497 -0.0643
13405SOL    HW141656   0.151   0.118   3.250 -0.0206  0.8545 -0.4481
13405SOL    HW241657   0.009   0.155   3.214  0.0705  0.1716 -1.5580
13406SOL     OW41658   3.712   4.691  10.889 -0.0644 -0.5055  0.0488
13406SOL    HW141659   3.760   4.618  10.928  0.6324 -0.0478  0.0837
13406SOL    HW241660   3.623   4.684  10.924  0.6545  0.1669  2.1515
13407SOL     OW41661   2.760   0.101   0.476 -0.2449 -0.7425  0.2405
13407SOL    HW141662   2.676   0.148   0.479  0.7943  1.4112 -1.4204
13407SOL    HW241663   2.750   0.039   0.404 -0.7222 -1.2233  0.7067
13408SOL     OW41664   3.711   7.528   6.600  0.4880  0.5842  0.1329
13408SOL    HW141665   3.765   7.467   6.651 -0.9182 -2.0208 -1.2665
13408SOL    HW241666   3.625   7.486   6.597 -0.9372  3.3282  0.1375
13409SOL     OW41667   0.153   3.483   5.997  0.0248  0.6690 -0.2552
13409SOL    HW141668   0.185   3.445   5.915 -0.9460 -1.6434  0.3459
13409SOL    HW241669   0.139   3.576   5.977  0.8758  0.3933 -2.3558
13410SOL     OW41670   7.622   6.808   0.552  0.2640 -0.3711  0.1693
13410SOL    HW141671   7.588   6.894   0.528  1.3783 -0.3296 -1.3769
13410SOL    HW241672   7.717   6.816   0.542  0.4800 -1.4299  1.2085
13411SOL     OW41673   4.032   6.240   8.510 -0.1429  0.0930 -0.3782
13411SOL    HW141674   4.079   6.260   8.591  0.1203 -1.0524 -0.2361
13411SOL    HW241675   3.940   6.252   8.532 -0.1065 -0.6839  0.2398
13412SOL     OW41676   1.443   2.247   9.849 -0.3522 -0.0841 -0.4986
13412SOL    HW141677   1.476   2.251   9.938  1.0973 -1.8347 -0.8949
13412SOL    HW241678   1.474   2.328   9.808 -1.2156  0.8352  0.5900
13413SOL     OW41679   0.083   5.448   4.115  0.9209  0.0238  0.3187
13413SOL    HW141680   0.053   5.522   4.062  0.8442  0.0213  0.3579
13413SOL    HW241681   0.035   5.457   4.197 -1.4964 -1.7835 -0.7478
13414SOL     OW41682   6.747   4.582   2.657 -0.1565  0.0547 -0.1799
13414SOL    HW141683   6.775   4.560   2.746  0.4320  2.2983  0.2591
13414SOL    HW241684   6.827   4.571   2.604  0.1178  0.9714  0.0251
13415SOL     OW41685   7.293   3.582   2.650 -0.0947  0.6911  0.0977
13415SOL    HW141686   7.225   3.648   2.643 -0.1961  0.5395 -0.4320
13415SOL    HW241687   7.329   3.575   2.561  0.5984  0.7568  0.3668
13416SOL     OW41688   2.789   4.075   6.551 -0.2851  0.1229  0.1459
13416SOL    HW141689   2.802   4.107   6.640  0.3988 -0.4563  0.2626
13416SOL    HW241690   2.875   4.040   6.525 -0.5399  0.0616 -0.6466
13417SOL     OW41691   3.036   5.320   8.780  0.3556 -0.7612 -0.3923
13417SOL    HW141692   3.129   5.299   8.785  0.8560  1.4175  1.3417
13417SOL    HW241693   3.017   5.323   8.686  1.5364 -2.9558 -0.7692
13418SOL     OW41694   5.958   4.173  11.279 -0.2606  0.1023 -0.5160
13418SOL    HW141695   5.914   4.105  11.330 -1.0804  0.4057 -0.8049
13418SOL    HW241696   6.042   4.185  11.323  0.7255 -2.4017 -1.5219
13419SOL     OW41697   5.187   0.238   8.488 -0.5886  0.0174 -0.3145
13419SOL    HW141698   5.160   0.159   8.441 -0.7922  0.7590 -1.4774
13419SOL    HW241699   5.121   0.303   8.466 -0.9404  0.2737  1.3870
13420SOL     OW41700   1.647   3.415   7.041 -0.0195 -0.2628 -0.3258
13420SOL    HW141701   1.645   3.334   7.093 -0.4772  0.0973  0.2146
13420SOL    HW241702   1.700   3.475   7.093  0.8333 -0.3947 -1.0111
13421SOL     OW41703   2.624   6.269  11.858  0.1385 -0.2333  0.2962
13421SOL    HW141704   2.533   6.299  11.852  0.1234 -0.2940  0.2073
13421SOL    HW241705   2.644   6.271  11.951 -0.1226 -0.7090  0.3641
13422SOL     OW41706   5.329   3.390   2.882  0.5002  0.3203 -0.0765
13422SOL    HW141707   5.385   3.435   2.819  0.9692  0.2912  0.3108
13422SOL    HW241708   5.241   3.394   2.844  0.8761 -0.2562 -1.0330
13423SOL     OW41709   4.173   1.599   0.122  0.1433  0.3931  0.4246
13423SOL    HW141710   4.136   1.511   0.115 -1.6945  1.2102 -0.7008
13423SOL    HW241711   4.130   1.650   0.053  1.6350  2.0320  0.6191
13424SOL     OW41712   3.919   4.167   2.834 -0.6199  0.1824 -0.1300
13424SOL    HW141713   3.910   4.073   2.822  0.5259 -0.2074  1.7195
13424SOL    HW241714   4.005   4.187   2.797  0.0147  0.1191  1.2484
13425SOL     OW41715   5.783   5.733   1.929  0.2643 -0.4713 -0.2479
13425SOL    HW141716   5.727   5.680   1.987  0.8763 -2.9095 -1.7413
13425SOL    HW241717   5.809   5.807   1.983 -0.9690 -1.4670  1.8753
13426SOL     OW41718   0.641   6.578  12.335 -0.1479 -0.0973 -0.0306
13426SOL    HW141719   0.635   6.673  12.345  0.9017  0.1458 -1.4387
13426SOL    HW241720   0.724   6.555  12.377 -0.7211 -0.5228  0.9235
13427SOL     OW41721   0.330   1.957   2.061  0.0823  0.4661  0.0373
13427SOL    HW141722   0.424   1.945   2.076  0.0564  0.8362  0.5219
13427SOL    HW241723   0.296   1.869   2.045  0.5509  0.3575 -0.3798
13428SOL     OW41724   4.984   3.059   8.960  0.4730  0.0107 -0.5462
13428SOL    HW141725   4.996   3.073   8.866 -0.7762 -0.2037 -0.7554
13428SOL    HW241726   5.047   2.989   8.982 -0.3118 -1.0595 -1.5602
13429SOL     OW41727   2.652   5.036   8.409 -0.1228 -0.1263  0.5129
13429SOL    HW141728   2.576   5.022   8.352 -0.0945 -0.2563  0.5058
13429SOL    HW241729   2.673   4.948   8.441  1.6428 -0.5300 -1.5250
13430SOL     OW41730   5.450   4.891   8.974 -0.4607 -0.2083 -0.3111
13430SOL    HW141731   5.371   4.867   9.023 -0.8166 -2.6078 -1.8994
13430SOL    HW241732   5.481   4.971   9.016 -3.7899  0.9093  0.2812
13431SOL     OW41733   0.383   0.493   2.940  0.6783 -0.1954 -0.3142
13431SOL    HW141734   0.306   0.511   2.994  0.9945  0.9021 -0.2037
13431SOL    HW241735   0.448   0.459   3.002  0.3748 -0.8606 -0.3593
13432SOL     OW41736   5.985   0.223   9.308 -0.5295  0.4825  0.1800
13432SOL    HW141737   5.929   0.299   9.295 -1.6866 -0.3737 -0.0939
13432SOL    HW241738   6.027   0.209   9.223  1.1890  1.9145  0.7434
13433SOL     OW41739   2.815   7.711   3.925 -0.4060 -0.3477 -0.0513
13433SOL    HW141740   2.847   7.780   3.983  1.2673 -1.2642  0.1931
13433SOL    HW241741   2.892   7.657   3.908 -1.3370 -1.3108 -1.4378
13434SOL     OW41742   6.772   2.106   3.836  0.1471 -0.8090  0.0218
13434SOL    HW141743   6.848   2.164   3.838 -0.1272 -0.4615  0.4021
13434SOL    HW241744   6.809   2.018   3.834  0.5954 -0.6265 -1.8658
13435SOL     OW41745   6.456   5.288   5.686  0.7419  0.1940  0.0330
13435SOL    HW141746   6.391   5.225   5.656  0.6710 -0.3872  1.3235
13435SOL    HW241747   6.453   5.358   5.622 -0.0666 -0.5361 -0.7585
13436SOL     OW41748   0.987   4.758   4.296 -0.2379 -0.3768 -0.0841
13436SOL    HW141749   1.035   4.833   4.330  0.3931 -0.3384 -1.0325
13436SOL    HW241750   0.914   4.795   4.247 -1.5919 -0.4374  1.7624
13437SOL     OW41751   7.288   3.366   1.664 -0.1943 -0.8030  0.3208
13437SOL    HW141752   7.367   3.312   1.657 -0.2149 -0.8817  0.6859
13437SOL    HW241753   7.235   3.341   1.587 -0.4059 -1.6319  0.7233
13438SOL     OW41754   4.564   2.173   2.774  0.4512  0.3259  0.0896
13438SOL    HW141755   4.581   2.127   2.692 -2.0279 -0.4990 -0.0325
13438SOL    HW241756   4.546   2.104   2.837 -1.7907  0.9971  0.2858
13439SOL     OW41757   5.242   4.840   4.160  0.1255  0.6301 -0.1629
13439SOL    HW141758   5.329   4.821   4.126  0.0270 -0.5520  0.1733
13439SOL    HW241759   5.251   4.924   4.205  0.7948  1.0955 -1.1268
13440SOL     OW41760   7.786   2.816   8.365  0.3881  0.4250  0.2796
13440SOL    HW141761   7.781   2.815   8.460  1.6779  0.6385  0.3729
13440SOL    HW241762   7.880   2.820   8.346  0.1618  0.1691 -1.0010
13441SOL     OW41763   1.327   4.538   1.535  0.1693  0.2767  0.1507
13441SOL    HW141764   1.271   4.477   1.583  2.3406 -1.9011  0.0978
13441SOL    HW241765   1.293   4.536   1.445 -0.1187 -0.4530  0.2665
13442SOL     OW41766   2.494   2.289   2.599 -0.2781  0.1392  0.0724
13442SOL    HW141767   2.406   2.328   2.596 -0.2421  0.3230  1.0577
13442SOL    HW241768   2.492   2.232   2.675 -0.2266 -1.6018 -1.1834
13443SOL     OW41769   7.136   5.205   8.529  0.1704 -0.3275 -0.5428
13443SOL    HW141770   7.073   5.267   8.495 -0.0528 -0.7236 -0.8659
13443SOL    HW241771   7.209   5.208   8.467  0.5128  0.1955 -0.1217
13444SOL     OW41772   1.903   6.665   2.751  0.4553 -0.2610 -0.1984
13444SOL    HW141773   1.869   6.577   2.769  1.2893 -0.7836 -1.0995
13444SOL    HW241774   1.825   6.719   2.740 -0.2846  0.2083  4.7762
13445SOL     OW41775   4.145   2.589   3.700  0.8593  0.1706  0.4850
13445SOL    HW141776   4.213   2.530   3.667  1.0563  0.5645  0.1722
13445SOL    HW241777   4.165   2.674   3.660 -1.3778 -0.2666 -1.8624
13446SOL     OW41778   6.712   3.484   5.794 -0.3227 -0.7036  0.6558
13446SOL    HW141779   6.668   3.561   5.758  1.1127 -0.2510 -0.1846
13446SOL    HW241780   6.680   3.412   5.740  0.9876 -0.1771 -0.8867
13447SOL     OW41781   2.650   4.087   1.087  0.1034  0.3095 -0.1647
13447SOL    HW141782   2.628   4.104   0.995  0.3454  0.0720 -0.2717
13447SOL    HW241783   2.607   4.003   1.106  0.8045 -0.1046 -0.3453
13448SOL     OW41784   3.252   1.398   2.697 -0.4384 -0.1141  0.0380
13448SOL    HW141785   3.229   1.359   2.613  0.3438 -0.8202  0.1301
13448SOL    HW241786   3.259   1.492   2.680 -1.2890 -0.1317 -0.4447
13449SOL     OW41787   0.167   4.876   9.073 -0.0185  0.0375  0.4888
13449SOL    HW141788   0.129   4.788   9.078 -0.2267  0.1098  0.2354
13449SOL    HW241789   0.256   4.866   9.107 -0.4955  0.0099  1.7617
13450SOL     OW41790   0.110   6.119   2.117 -0.7518 -0.0350  0.4425
13450SOL    HW141791   0.192   6.070   2.125  0.5160  2.0153  0.5917
13450SOL    HW241792   0.043   6.059   2.151  0.5517 -1.9912 -0.2219
13451SOL     OW41793   1.341   1.131   0.019  0.5232  0.4198  0.3119
13451SOL    HW141794   1.290   1.207   0.048  0.8319  0.6920  0.1552
13451SOL    HW241795   1.374   1.156  -0.067 -0.6168 -0.4875 -0.4230
13452SOL     OW41796   0.033   6.521   6.020  0.3055  0.0066 -0.1743
13452SOL    HW141797  -0.026   6.595   6.006  0.5219 -0.0310 -1.3428
13452SOL    HW241798  -0.023   6.454   6.061 -0.1436  0.4337 -0.0760
13453SOL     OW41799   1.162   0.148  10.006  0.4256  0.3359  0.3202
13453SOL    HW141800   1.235   0.113  10.056 -1.4235 -2.7319  1.1265
13453SOL    HW241801   1.145   0.082   9.938 -1.7198  0.7661  0.3503
13454SOL     OW41802   6.654   5.803   1.551 -0.6003 -0.0117 -0.4164
13454SOL    HW141803   6.613   5.789   1.637  0.1884  1.1327  0.1592
13454SOL    HW241804   6.649   5.897   1.537  0.9057  0.0249 -0.8087
13455SOL     OW41805   5.182   6.257   3.531  0.2031 -0.2275  0.5842
13455SOL    HW141806   5.116   6.309   3.577 -0.9508  0.7812 -2.0413
13455SOL    HW241807   5.173   6.169   3.567 -2.9806 -0.2440 -0.0212
13456SOL     OW41808   3.349   7.506   7.500 -0.0458 -0.1719  0.1707
13456SOL    HW141809   3.401   7.488   7.421 -1.9293  0.2192 -1.2293
13456SOL    HW241810   3.281   7.438   7.500 -0.5698  0.3325  0.9889
13457SOL     OW41811   2.498   7.815   5.903 -0.2103  0.2123 -0.2864
13457SOL    HW141812   2.502   7.834   5.809  1.4388 -0.7983 -0.4651
13457SOL    HW241813   2.440   7.882   5.939 -0.0241  1.2781 -1.8640
13458SOL     OW41814   5.916   0.284   2.007 -0.6692  0.2963 -0.2160
13458SOL    HW141815   5.913   0.266   1.913 -1.7036  1.6816 -0.4859
13458SOL    HW241816   5.951   0.373   2.013  1.3144 -0.5119  0.8574
13459SOL     OW41817   4.209   0.155   9.579  0.4297 -0.0918  0.5292
13459SOL    HW141818   4.266   0.209   9.634  1.2986 -0.4090 -0.0551
13459SOL    HW241819   4.236   0.174   9.490 -0.6311  0.0261  0.2198
13460SOL     OW41820   2.494   0.680   4.087 -0.1720  0.0421 -0.0756
13460SOL    HW141821   2.588   0.668   4.073 -0.3548 -0.6732 -0.7650
13460SOL    HW241822   2.474   0.764   4.047  0.3012  0.5436  0.7207
13461SOL     OW41823   6.268   3.008   4.765  0.0497  0.6044 -0.2859
13461SOL    HW141824   6.228   3.059   4.836 -1.2461 -1.5010  0.5956
13461SOL    HW241825   6.361   3.004   4.788 -0.2394  0.5457  0.9223
13462SOL     OW41826   0.378   2.728   4.262 -0.1297 -0.0897 -0.0433
13462SOL    HW141827   0.439   2.683   4.204  0.4008 -1.9421  1.8020
13462SOL    HW241828   0.321   2.659   4.295 -2.3353  1.3716 -0.5673
13463SOL     OW41829   5.778   1.839   9.377  0.0798 -0.0668 -0.7598
13463SOL    HW141830   5.865   1.878   9.376  0.0633 -0.0404 -1.7201
13463SOL    HW241831   5.720   1.910   9.404  0.1801  0.2998 -1.4925
13464SOL     OW41832   3.120   7.337   1.991  0.0350 -0.3740 -0.7496
13464SOL    HW141833   3.046   7.344   2.051 -0.8602  0.3198 -1.8883
13464SOL    HW241834   3.186   7.288   2.039 -0.6793  0.0989  0.7588
13465SOL     OW41835   1.630   4.651   3.309  0.6219  0.0920 -0.2078
13465SOL    HW141836   1.703   4.702   3.345  0.5168  0.4433 -0.4767
13465SOL    HW241837   1.567   4.718   3.281  0.7626 -0.1566 -1.1706
13466SOL     OW41838   3.815   6.798  11.311 -0.3056  0.0400  0.3560
13466SOL    HW141839   3.767   6.806  11.228 -1.1010 -1.3249  0.6512
13466SOL    HW241840   3.884   6.864  11.305 -0.9225  0.6059 -0.9929
13467SOL     OW41841   6.888   7.667   1.115  0.2431 -0.1761 -0.0370
13467SOL    HW141842   6.800   7.643   1.143 -0.3910  0.1864 -1.6154
13467SOL    HW241843   6.911   7.742   1.169 -0.1061 -0.7291  0.8967
13468SOL     OW41844   2.497   5.676   2.515 -0.3599 -0.0164 -0.2612
13468SOL    HW141845   2.563   5.676   2.585 -0.1556  1.5838 -0.4188
13468SOL    HW241846   2.447   5.596   2.530  1.5402 -1.2451 -0.0789
13469SOL     OW41847   5.419   1.279  11.906  0.1959  0.3430 -0.7354
13469SOL    HW141848   5.511   1.263  11.883 -0.0504 -1.6948 -0.4706
13469SOL    HW241849   5.412   1.251  11.997 -0.7217  0.3556 -0.7963
13470SOL     OW41850   5.380   3.438   9.276  0.4864  0.7077  0.0412
13470SOL    HW141851   5.320   3.370   9.244 -1.1500  2.0032  0.2322
13470SOL    HW241852   5.409   3.483   9.196  4.8494 -2.5665 -0.6144
13471SOL     OW41853   1.471   6.984  11.404 -0.0423 -0.1176  0.3722
13471SOL    HW141854   1.462   6.903  11.455 -0.7219 -1.4286 -1.7189
13471SOL    HW241855   1.565   7.003  11.406 -0.0529 -0.0364  2.1626
13472SOL     OW41856   6.061   3.774  10.880 -0.0433  0.2524 -0.4601
13472SOL    HW141857   6.012   3.841  10.929 -0.2154  0.0407 -0.3433
13472SOL    HW241858   6.041   3.793  10.788 -0.0449  0.3975 -0.4299
13473SOL     OW41859   0.813   0.664   0.353 -0.2137  0.6922 -0.0814
13473SOL    HW141860   0.800   0.711   0.271  2.2000  1.3051 -0.2014
13473SOL    HW241861   0.849   0.730   0.413 -1.2434  0.0772  1.2645
13474SOL     OW41862   7.838   0.080   6.118 -0.0446  0.2666  0.2467
13474SOL    HW141863   7.928   0.068   6.087  0.7861  1.4226  2.0258
13474SOL    HW241864   7.846   0.081   6.214 -1.9064  0.7224  0.4247
13475SOL     OW41865   2.635   0.725   6.278  0.3846 -0.1494 -0.1236
13475SOL    HW141866   2.545   0.715   6.247  0.6686  0.6320 -1.2528
13475SOL    HW241867   2.647   0.819   6.290  0.1470 -0.3947  2.9362
13476SOL     OW41868   2.138   7.678   1.281  0.4391 -0.8639  0.2936
13476SOL    HW141869   2.101   7.614   1.341 -1.6863 -0.6629 -0.7169
13476SOL    HW241870   2.172   7.626   1.208 -0.4168 -0.9165 -0.0777
13477SOL     OW41871   0.542   5.461   9.779 -0.4603  0.0976 -0.0869
13477SOL    HW141872   0.586   5.515   9.714 -1.4755  0.2282 -0.6886
13477SOL    HW241873   0.604   5.455   9.852 -0.5374  2.5379  0.2600
13478SOL     OW41874   3.652   3.690  11.695 -0.3127  0.1791  0.3245
13478SOL    HW141875   3.643   3.596  11.713 -1.2263  0.1786 -0.0843
13478SOL    HW241876   3.567   3.715  11.658  0.3689  0.8909 -0.7906
13479SOL     OW41877   6.741   7.674  10.165 -0.6703 -0.0137  0.0020
13479SOL    HW141878   6.747   7.579  10.160 -0.6434 -0.0844  1.2046
13479SOL    HW241879   6.831   7.704  10.151 -0.7099 -0.1504 -0.5624
13480SOL     OW41880   4.568   1.308   8.497 -0.4133 -0.2735 -0.2141
13480SOL    HW141881   4.558   1.253   8.420  0.8085  0.4598 -0.9279
13480SOL    HW241882   4.500   1.278   8.557 -0.8555 -1.4078 -1.2450
13481SOL     OW41883   6.401   2.451   1.606 -0.2772 -0.3927 -0.1825
13481SOL    HW141884   6.347   2.424   1.531  1.6377 -1.1696 -1.3759
13481SOL    HW241885   6.383   2.385   1.673 -1.7429  0.1040 -0.0437
13482SOL     OW41886   3.026   6.719   0.411  0.0437  0.1136  0.5254
13482SOL    HW141887   3.060   6.793   0.461  1.4836  0.3621 -0.7285
13482SOL    HW241888   2.941   6.700   0.450  1.7013 -0.7502  4.0747
13483SOL     OW41889   4.224   5.409   4.361 -0.2478 -0.6301  0.0275
13483SOL    HW141890   4.133   5.437   4.359  0.2700  1.1565 -1.1705
13483SOL    HW241891   4.269   5.470   4.303  1.6017 -1.9060  0.0334
13484SOL     OW41892   1.631   3.102   1.319  0.0849 -0.0323 -0.6924
13484SOL    HW141893   1.618   3.007   1.317  0.1343 -0.0863  0.5194
13484SOL    HW241894   1.665   3.120   1.407  1.9215  0.8995 -1.5543
13485SOL     OW41895   2.441   1.680  10.402  0.4065 -0.2709  0.1202
13485SOL    HW141896   2.450   1.689  10.497 -1.1105 -1.5489  0.4309
13485SOL    HW241897   2.399   1.762  10.374 -0.9677 -0.6980  0.8675
13486SOL     OW41898   2.042   2.501   1.890  0.6946 -0.1646 -0.5505
13486SOL    HW141899   1.987   2.431   1.856  0.6009 -0.0539 -0.6266
13486SOL    HW241900   2.101   2.523   1.818  0.0059  0.5797 -0.9028
13487SOL     OW41901   1.436   6.797   7.477 -0.3096  0.3884  0.5715
13487SOL    HW141902   1.440   6.822   7.385  0.4961 -0.1231  0.4601
13487SOL    HW241903   1.490   6.718   7.483 -2.4075 -1.1070  0.9744
13488SOL     OW41904   0.033   7.978  12.149  0.5673  0.4874  0.1107
13488SOL    HW141905   0.098   7.975  12.219  0.4102  0.2252  0.2458
13488SOL    HW241906  -0.003   7.890  12.146  0.6630  0.4607 -0.3862
13489SOL     OW41907   4.794   5.164   4.840  0.4496  0.0133  0.6679
13489SOL    HW141908   4.784   5.169   4.935  0.0527  0.0735  0.6272
13489SOL    HW241909   4.855   5.092   4.826 -0.6979 -1.0489  0.9214
13490SOL     OW41910   2.830   5.915   2.550 -0.0677  0.4829  0.0857
13490SOL    HW141911   2.768   5.972   2.596  0.3185  0.4947  0.6028
13490SOL    HW241912   2.874   5.973   2.488 -0.9098  0.3736 -0.6264
13491SOL     OW41913   3.108   1.402  10.252 -0.5065 -0.0239  0.2341
13491SOL    HW141914   3.017   1.412  10.278 -0.9097  0.9976 -1.4340
13491SOL    HW241915   3.150   1.484  10.278 -0.4312  0.1377 -0.3756
13492SOL     OW41916   0.212   0.255   7.632  0.5138  0.6523 -0.1983
13492SOL    HW141917   0.220   0.247   7.537 -0.4396  1.2398 -0.3415
13492SOL    HW241918   0.266   0.331   7.654  1.7264 -0.2009 -0.0880
13493SOL     OW41919   6.267   5.179   4.529 -0.5236 -0.6193 -0.0372
13493SOL    HW141920   6.285   5.220   4.614 -1.6712 -1.9483  0.8868
13493SOL    HW241921   6.322   5.228   4.467  0.0791  0.6095  1.3966
13494SOL     OW41922   2.607   5.293   8.290  0.0782 -0.1216 -0.0286
13494SOL    HW141923   2.614   5.359   8.359 -3.3602  0.9462 -0.5117
13494SOL    HW241924   2.633   5.211   8.333 -1.2211  0.6157  2.3963
13495SOL     OW41925   0.586   5.513   8.008 -0.2844  0.4558 -0.0657
13495SOL    HW141926   0.648   5.539   8.076  0.8220 -3.7989  0.8421
13495SOL    HW241927   0.500   5.536   8.044  0.0159 -3.3854  4.0940
13496SOL     OW41928   6.563   2.747   0.721  0.4064 -0.4576 -0.3815
13496SOL    HW141929   6.655   2.756   0.747 -0.3966  0.5724  2.4073
13496SOL    HW241930   6.560   2.664   0.673  2.7966 -0.4476 -0.6736
13497SOL     OW41931   5.208   0.373   1.473 -0.6696 -0.8722  0.4044
13497SOL    HW141932   5.269   0.313   1.430  0.9220  0.5284  0.6200
13497SOL    HW241933   5.263   0.427   1.530 -2.2077  0.0071  1.1113
13498SOL     OW41934   3.249   1.102   5.923  0.4714  0.2808 -0.0188
13498SOL    HW141935   3.216   1.026   5.970  1.7737  0.9796  2.1305
13498SOL    HW241936   3.300   1.065   5.850  1.2286 -0.9273  1.0821
13499SOL     OW41937   4.231   4.253  11.436  0.3217  0.1461 -0.2287
13499SOL    HW141938   4.151   4.281  11.480  0.9911 -0.1615  1.2543
13499SOL    HW241939   4.290   4.329  11.442  0.0558  0.4907 -1.6106
13500SOL     OW41940   6.942   7.619  11.423 -0.3012 -0.1015 -0.1154
13500SOL    HW141941   7.016   7.650  11.371  0.1340 -1.0828 -0.1018
13500SOL    HW241942   6.923   7.532  11.388  0.0942 -0.8467  1.4204
13501SOL     OW41943   2.628   6.371   2.396 -0.3120 -0.2149 -0.1712
13501SOL    HW141944   2.681   6.425   2.337 -0.8073  0.1105 -0.3186
13501SOL    HW241945   2.690   6.342   2.463 -0.1610  1.0757  0.2789
13502SOL     OW41946   4.918   2.618   6.985  0.5181  0.7081  0.4182
13502SOL    HW141947   4.879   2.684   6.928  0.2541  0.8913  0.8051
13502SOL    HW241948   4.845   2.560   7.008  0.9331 -0.3010 -0.6946
13503SOL     OW41949   3.415   1.192   1.768 -0.2323  0.3797  0.4712
13503SOL    HW141950   3.373   1.252   1.706 -2.7235  0.2993  1.9331
13503SOL    HW241951   3.423   1.110   1.720 -3.1454 -0.0091  0.4345
13504SOL     OW41952   6.295   2.645   0.809 -0.2742  0.2400 -0.2419
13504SOL    HW141953   6.281   2.553   0.790  0.9223 -0.0283  0.0665
13504SOL    HW241954   6.333   2.680   0.728  1.0701  0.0009  0.2501
13505SOL     OW41955   0.091   3.485  10.005  0.4181  0.2092  0.3587
13505SOL    HW141956   0.071   3.396  10.033  1.9075  0.1843  1.4570
13505SOL    HW241957   0.005   3.528   9.998 -0.1928 -0.3745  3.0301
13506SOL     OW41958   5.690   5.789  10.203 -0.2077 -0.0074  0.4307
13506SOL    HW141959   5.672   5.806  10.111 -0.2945 -0.5691  0.3406
13506SOL    HW241960   5.754   5.856  10.228 -2.4881  2.1658  0.8294
13507SOL     OW41961   0.133   2.196   1.386 -0.0027 -0.0624 -0.0557
13507SOL    HW141962   0.088   2.184   1.470  1.2520 -0.4516  0.5973
13507SOL    HW241963   0.102   2.280   1.353  0.8712  1.0324  1.7282
13508SOL     OW41964   4.483   6.140   3.668  0.0773  0.4662 -0.3461
13508SOL    HW141965   4.440   6.120   3.751 -1.0921 -0.4328 -1.1355
13508SOL    HW241966   4.439   6.218   3.635  1.2029  1.4108  0.3150
13509SOL     OW41967   3.008   5.150   6.721 -0.3042 -0.2968 -0.6793
13509SOL    HW141968   2.997   5.108   6.636 -0.4952  1.5656 -1.6192
13509SOL    HW241969   2.927   5.130   6.768 -0.3351 -1.0676 -1.0542
13510SOL     OW41970   4.410   1.393   6.832  0.9001 -0.6020  0.4131
13510SOL    HW141971   4.393   1.343   6.752  1.1759  1.0839 -0.7529
13510SOL    HW241972   4.434   1.327   6.896 -0.5580 -2.1289 -0.5306
13511SOL     OW41973   1.006   3.152  12.313 -0.4840 -0.5345 -0.0964
13511SOL    HW141974   0.994   3.219  12.381 -0.1580 -0.7842  0.2080
13511SOL    HW241975   1.086   3.106  12.338  0.4688  0.3148 -1.4329
13512SOL     OW41976   0.230   7.054   4.744  0.2019 -0.1819  0.6949
13512SOL    HW141977   0.216   7.093   4.830  0.7173 -1.7635  1.5194
13512SOL    HW241978   0.324   7.063   4.728 -0.0361  1.0092 -0.1780
13513SOL     OW41979   1.188   7.171   8.198 -0.2445  0.4022 -0.5436
13513SOL    HW141980   1.268   7.144   8.153  0.3970  2.9185 -1.0992
13513SOL    HW241981   1.203   7.148   8.290  0.3634 -0.7011 -0.8995
13514SOL     OW41982   3.206   4.133   0.466  0.5562 -0.6722  0.4554
13514SOL    HW141983   3.301   4.119   0.467  0.8115  0.7672 -0.2716
13514SOL    HW241984   3.174   4.073   0.399  1.4196  0.9983 -1.5947
13515SOL     OW41985   1.499   0.798   7.820  0.1313  0.8739 -0.2230
13515SOL    HW141986   1.408   0.795   7.849  0.4741  0.4156  0.8637
13515SOL    HW241987   1.531   0.884   7.849  0.8008 -0.0275  1.8771
13516SOL     OW41988   1.660   1.127   4.871  1.0668  0.3367  0.0720
13516SOL    HW141989   1.645   1.218   4.896  0.3955 -0.0735  1.2111
13516SOL    HW241990   1.629   1.123   4.780  0.1448  1.0142  0.3296
13517SOL     OW41991   6.279   1.033   7.285 -0.0197  0.3681 -0.2241
13517SOL    HW141992   6.226   1.106   7.252  0.3605  1.5411  1.5867
13517SOL    HW241993   6.224   0.991   7.351  0.6244  0.5243  0.4316
13518SOL     OW41994   0.290   5.524   3.713  0.5320 -0.0218 -0.0983
13518SOL    HW141995   0.342   5.456   3.670  1.4290  0.0910  0.7776
13518SOL    HW241996   0.338   5.605   3.696 -0.0957  0.2924 -0.4355
13519SOL     OW41997   6.037   0.175  10.200  0.4462 -0.2185 -0.0828
13519SOL    HW141998   5.943   0.184  10.217  0.2994 -0.0167 -0.9874
13519SOL    HW241999   6.063   0.099  10.252  0.2318  0.9575  1.8796
13520SOL     OW42000   6.624   0.850   5.698  0.1504 -0.1427 -0.5263
13520SOL    HW142001   6.630   0.892   5.784  0.2888 -0.7327 -0.2445
13520SOL    HW242002   6.604   0.922   5.638 -1.9426  0.0077  0.2634
13521SOL     OW42003   3.281   1.221  11.773  0.1770 -0.6304 -0.6892
13521SOL    HW142004   3.186   1.214  11.779  0.0860  0.5577 -0.5462
13521SOL    HW242005   3.303   1.179  11.690 -0.4600 -1.0168 -0.6665
13522SOL     OW42006   7.132   6.728   0.153 -0.1303 -0.1254  0.3759
13522SOL    HW142007   7.203   6.711   0.092  0.0881 -0.7591  0.7974
13522SOL    HW242008   7.170   6.783   0.221  0.0462 -0.7113  0.7599
13523SOL     OW42009   6.473   2.321   7.877  0.4622  0.5452  0.0311
13523SOL    HW142010   6.479   2.285   7.966  2.7650  0.8275  0.0542
13523SOL    HW242011   6.564   2.342   7.854  0.4183 -2.1068 -3.4493
13524SOL     OW42012   5.709   0.168   0.315 -0.3050 -0.1695  0.2722
13524SOL    HW142013   5.802   0.190   0.307 -0.7789  2.0161  0.0042
13524SOL    HW242014   5.685   0.199   0.403 -0.8425 -0.4493  0.2275
13525SOL     OW42015   7.489   7.916   8.304 -0.4998 -0.2426  0.7361
13525SOL    HW142016   7.540   7.871   8.237 -0.3764  0.4349  0.3729
13525SOL    HW242017   7.540   7.994   8.325 -1.0572  0.0975  0.8488
13526SOL     OW42018   6.140   1.305   0.320 -0.2660  0.8397 -0.0035
13526SOL    HW142019   6.098   1.366   0.260  0.0925  1.6324  0.5451
13526SOL    HW242020   6.133   1.345   0.406  1.0971  0.7428  0.1856
13527SOL     OW42021   2.283   5.367   6.982  0.5625 -0.7145 -0.2322
13527SOL    HW142022   2.267   5.312   7.059 -2.1903 -1.0290 -0.9147
13527SOL    HW242023   2.306   5.306   6.912 -0.4056 -0.8176 -0.4753
13528SOL     OW42024   3.620   1.252  11.597  0.5675 -0.0173  0.0222
13528SOL    HW142025   3.680   1.277  11.527 -0.0847  3.0926  0.4287
13528SOL    HW242026   3.671   1.263  11.677  0.0217  0.8291  0.2619
13529SOL     OW42027   1.446   5.993   8.707 -0.0338  0.0467 -0.3562
13529SOL    HW142028   1.502   6.056   8.662  0.4735 -0.9144 -1.1206
13529SOL    HW242029   1.484   5.985   8.794 -1.1958  2.1494  0.4109
13530SOL     OW42030   2.688   3.315  11.321 -0.1844  0.2797 -0.3188
13530SOL    HW142031   2.770   3.295  11.277  0.6119  1.0832  0.7248
13530SOL    HW242032   2.713   3.330  11.412 -1.2513  2.0291 -0.2634
13531SOL     OW42033   7.287   6.639   0.954 -0.1870 -0.2078 -0.0260
13531SOL    HW142034   7.291   6.699   0.879 -0.1269  0.1161  0.2365
13531SOL    HW242035   7.325   6.689   1.026 -1.0210 -0.2240  0.4215
13532SOL     OW42036   3.279   2.584   0.149  0.2932  0.2997 -0.9421
13532SOL    HW142037   3.358   2.530   0.154 -0.2853 -0.6297 -1.6353
13532SOL    HW242038   3.207   2.522   0.153 -0.4135  1.1322 -0.4487
13533SOL     OW42039   1.742   0.239   3.762 -0.1985 -0.7296 -0.1719
13533SOL    HW142040   1.771   0.303   3.697  0.5599 -1.5545 -0.6725
13533SOL    HW242041   1.755   0.282   3.846  1.0450 -0.5127 -0.4663
13534SOL     OW42042   7.244   6.251   9.961  0.5111  0.5631  0.4126
13534SOL    HW142043   7.157   6.212   9.953 -0.3363  2.5229 -0.2908
13534SOL    HW242044   7.296   6.207   9.894  0.1803 -0.7819  0.9800
13535SOL     OW42045   4.989   0.046   4.154  0.5471 -0.2091 -0.1319
13535SOL    HW142046   5.009   0.108   4.085  1.4940 -1.3052 -0.8848
13535SOL    HW242047   4.986  -0.039   4.110  0.4143 -0.8384  1.0410
13536SOL     OW42048   4.855   6.028  10.645  0.3026  0.0979 -0.0821
13536SOL    HW142049   4.766   6.028  10.609 -0.4776  0.0809  1.7359
13536SOL    HW242050   4.863   6.112  10.691  1.0411 -0.1087  0.1833
13537SOL     OW42051   3.679   5.419  10.060  0.6257 -0.1442 -0.0814
13537SOL    HW142052   3.612   5.351  10.068  0.3461  0.0851 -0.4412
13537SOL    HW242053   3.630   5.501  10.050  0.9605  0.0902  0.1732
13538SOL     OW42054   6.909   5.489  12.030  0.3841 -0.1393  0.0288
13538SOL    HW142055   6.849   5.454  11.964 -0.2377  1.1495 -0.1377
13538SOL    HW242056   6.965   5.550  11.981  0.7325 -0.0875  0.4834
13539SOL     OW42057   1.485   4.271   7.348  0.1805 -0.1946 -0.4351
13539SOL    HW142058   1.396   4.294   7.323  0.1690 -1.7200 -2.0394
13539SOL    HW242059   1.537   4.285   7.269  1.5547  1.3846  0.6735
13540SOL     OW42060   1.089   0.082   8.680 -0.5229 -0.5616  0.4512
13540SOL    HW142061   1.153   0.123   8.739  0.4894  0.5647 -1.3117
13540SOL    HW242062   1.117   0.109   8.592 -3.3038 -0.2347 -0.4345
13541SOL     OW42063   6.646   5.198  11.631 -0.0385  0.0942 -0.3202
13541SOL    HW142064   6.663   5.214  11.724  1.0208  2.0804 -0.8079
13541SOL    HW242065   6.656   5.103  11.621 -0.5520 -0.2004  1.6513
13542SOL     OW42066   0.460   3.853   6.922 -0.2833  0.3368  0.1670
13542SOL    HW142067   0.484   3.906   6.998  0.5815 -1.0430  0.9188
13542SOL    HW242068   0.372   3.880   6.899 -0.1575  1.5041  1.0254
13543SOL     OW42069   1.826   4.363   3.957 -0.8289  0.3929 -0.2190
13543SOL    HW142070   1.764   4.435   3.947  0.3959  1.5150 -0.0389
13543SOL    HW242071   1.861   4.348   3.869  0.0594  1.1242 -0.0186
13544SOL     OW42072   7.174   2.399   3.347  0.0552  0.2557  0.0448
13544SOL    HW142073   7.128   2.356   3.419  0.4008 -0.2092 -0.0153
13544SOL    HW242074   7.149   2.492   3.356  0.2475  0.2375  0.8724
13545SOL     OW42075   2.532   2.876   9.449 -0.2163 -0.2712  0.4519
13545SOL    HW142076   2.543   2.958   9.402  1.3228 -1.3976 -1.3239
13545SOL    HW242077   2.557   2.896   9.539  2.0671  0.8104 -0.3476
13546SOL     OW42078   7.052   2.714   1.369  0.0728  0.4011  0.1360
13546SOL    HW142079   6.980   2.723   1.431 -0.6267  0.1389 -0.6152
13546SOL    HW242080   7.079   2.622   1.376 -0.2483  0.2762 -0.1875
13547SOL     OW42081   1.611   7.532  11.456 -0.0425  0.1461  0.0912
13547SOL    HW142082   1.705   7.542  11.469  0.0222  0.2747 -0.4406
13547SOL    HW242083   1.601   7.443  11.421 -0.1413  0.0700  0.3053
13548SOL     OW42084   0.607   0.576   8.466  0.1438  0.4142  0.1153
13548SOL    HW142085   0.580   0.652   8.518 -0.4961  0.4364 -0.2390
13548SOL    HW242086   0.629   0.509   8.531 -1.4755  0.1548  0.4266
13549SOL     OW42087   0.154   1.591   7.734  0.1483  0.2675  0.0994
13549SOL    HW142088   0.071   1.628   7.766  0.2293  0.3415  0.2222
13549SOL    HW242089   0.169   1.514   7.790  0.8991  1.0701  1.0342
13550SOL     OW42090   6.926   5.645   1.028 -0.2207 -0.2200 -0.4697
13550SOL    HW142091   6.864   5.679   0.963 -1.6890 -2.7881 -0.5629
13550SOL    HW242092   6.875   5.580   1.077  1.0277  1.1255  2.8644
13551SOL     OW42093   4.909   0.678   9.535 -0.4839 -0.2796  0.0511
13551SOL    HW142094   4.834   0.620   9.519 -0.2014 -0.5523 -0.3171
13551SOL    HW242095   4.873   0.753   9.582 -0.7215 -1.1299  1.2684
13552SOL     OW42096   1.598   6.600   9.396 -0.3591 -0.2689 -0.5032
13552SOL    HW142097   1.536   6.672   9.391 -0.8560 -0.6480 -0.0301
13552SOL    HW242098   1.544   6.521   9.397  0.0959 -0.5933  0.3623
13553SOL     OW42099   6.447   2.509   9.446  0.5900 -0.4613  0.5661
13553SOL    HW142100   6.471   2.459   9.369 -0.4108 -0.3528  0.1754
13553SOL    HW242101   6.515   2.488   9.510  0.8557 -1.3516  0.0072
13554SOL     OW42102   2.524   7.525  10.400 -0.3629  0.6592 -0.8302
13554SOL    HW142103   2.463   7.503  10.329 -0.1759 -1.6949 -0.3266
13554SOL    HW242104   2.471   7.576  10.462 -2.1112 -1.8395 -0.0891
13555SOL     OW42105   4.435   4.435  11.937  0.0057  0.4241  0.2033
13555SOL    HW142106   4.363   4.451  11.876  0.8684 -0.1583 -1.0111
13555SOL    HW242107   4.394   4.395  12.014 -1.1155  1.2390  0.0595
13556SOL     OW42108   2.936   4.865  10.668  0.1083  0.2304 -0.3664
13556SOL    HW142109   2.843   4.875  10.687 -0.1945 -1.6707 -0.6934
13556SOL    HW242110   2.980   4.911  10.740 -1.0576 -1.2600  1.3936
13557SOL     OW42111   7.391   6.406  11.836 -0.2717  0.3329  0.3071
13557SOL    HW142112   7.319   6.343  11.849 -1.1765  1.7955  3.4188
13557SOL    HW242113   7.470   6.356  11.855 -0.6004 -0.7597 -1.0169
13558SOL     OW42114   2.771   4.545   9.650  0.1222 -0.3768 -0.0664
13558SOL    HW142115   2.699   4.512   9.704 -0.1173  0.8621  0.4267
13558SOL    HW242116   2.842   4.560   9.713  0.0637  0.4557 -0.1873
13559SOL     OW42117   3.566   2.261   5.346 -0.0508 -0.7281 -0.0841
13559SOL    HW142118   3.514   2.221   5.276 -0.1198  0.1744 -0.5685
13559SOL    HW242119   3.622   2.324   5.301 -1.9157  1.7730  0.8702
13560SOL     OW42120   7.226   4.559   6.745 -0.1402 -0.0882 -0.5038
13560SOL    HW142121   7.217   4.627   6.679  1.0002  1.9974  1.3413
13560SOL    HW242122   7.312   4.520   6.729  0.5377  1.0456  0.2365
13561SOL     OW42123   3.872   0.966   1.353  0.7067 -0.5581  0.6127
13561SOL    HW142124   3.876   0.952   1.259 -0.7078 -0.0665  0.4467
13561SOL    HW242125   3.844   1.057   1.362 -1.8278 -1.3123  1.4029
13562SOL     OW42126   0.851   2.710   0.300 -0.3993 -0.1513  0.5319
13562SOL    HW142127   0.873   2.625   0.261 -2.5173  0.1392 -1.5214
13562SOL    HW242128   0.897   2.710   0.384  1.3992 -2.4022 -0.3359
13563SOL     OW42129   3.021   7.535   4.990  0.0354  0.1502 -0.0170
13563SOL    HW142130   3.088   7.545   5.058  0.0294 -0.5154  0.0915
13563SOL    HW242131   2.982   7.622   4.983  0.0601  0.2443  0.8078
13564SOL     OW42132   2.472   5.669   4.338 -0.1262  0.4900 -0.4083
13564SOL    HW142133   2.433   5.582   4.343 -0.9692  0.9181  0.9751
13564SOL    HW242134   2.397   5.729   4.338  0.4522  1.3091  1.6269
13565SOL     OW42135   0.294   7.646   8.719 -0.1345  0.3541 -0.1705
13565SOL    HW142136   0.310   7.716   8.782 -0.8506 -0.3843  0.8599
13565SOL    HW242137   0.209   7.609   8.744  0.6153 -1.4500 -0.1428
13566SOL     OW42138   1.734   2.645   6.006  0.2842  0.2726  0.5455
13566SOL    HW142139   1.815   2.694   5.996  0.7026 -0.6798 -1.0832
13566SOL    HW242140   1.708   2.623   5.917 -3.3722  3.0042  0.6828
13567SOL     OW42141   6.790   4.377   5.537 -0.2612 -0.0591 -0.5260
13567SOL    HW142142   6.841   4.360   5.458 -3.0277 -0.6218 -2.3229
13567SOL    HW242143   6.784   4.472   5.542  0.8998  0.0205 -0.2641
13568SOL     OW42144   1.293   7.517   6.341  0.0845  0.1291  0.0102
13568SOL    HW142145   1.237   7.474   6.406 -0.1585 -0.0151 -0.2912
13568SOL    HW242146   1.372   7.463   6.338  0.6425  0.8571  1.1174
13569SOL     OW42147   2.548   0.526   7.562  0.8414  0.2192  0.3996
13569SOL    HW142148   2.621   0.534   7.500 -0.2384  0.4474 -0.8611
13569SOL    HW242149   2.514   0.438   7.549 -1.1350  1.1675 -1.3704
13570SOL     OW42150   4.550   4.934   2.637 -0.4099 -0.1219 -0.2119
13570SOL    HW142151   4.637   4.896   2.650 -0.2901  0.8871  2.3801
13570SOL    HW242152   4.564   5.028   2.635 -1.4456  0.0579  0.2901
13571SOL     OW42153   2.992   5.106   2.445 -0.3809 -0.0788  0.2067
13571SOL    HW142154   2.899   5.084   2.449 -0.1190 -1.2116  0.3333
13571SOL    HW242155   3.032   5.035   2.395  0.5919 -0.2107  1.1317
13572SOL     OW42156   0.226   0.425   4.918  0.1528 -0.3561 -0.4328
13572SOL    HW142157   0.317   0.396   4.927  1.0136  2.1480 -0.5273
13572SOL    HW242158   0.178   0.373   4.984  1.9719 -0.3738  0.9408
13573SOL     OW42159   2.473   3.012   8.955 -0.1426 -0.1848 -0.5312
13573SOL    HW142160   2.534   2.991   8.885 -1.0975  0.3776 -1.5616
13573SOL    HW242161   2.445   2.927   8.989 -0.4152 -0.4843 -1.4866
13574SOL     OW42162   5.097   0.836   1.749  0.1505 -0.1444 -0.4433
13574SOL    HW142163   5.081   0.811   1.659 -0.2836 -1.5207  0.0031
13574SOL    HW242164   5.143   0.762   1.788 -1.2058 -0.3364  0.9205
13575SOL     OW42165   0.974   1.067   7.183  0.6416  0.1283  0.8365
13575SOL    HW142166   1.058   1.028   7.207  0.9601  0.6265  0.5522
13575SOL    HW242167   0.984   1.091   7.091  0.8588  1.8782  1.2778
13576SOL     OW42168   6.646   5.653   2.776  0.7557 -0.4764  0.4659
13576SOL    HW142169   6.699   5.649   2.697  0.8228  0.2836  0.4729
13576SOL    HW242170   6.556   5.639   2.745  0.8484 -0.7860  0.3349
13577SOL     OW42171   4.207   6.998  10.437 -0.0276 -0.1883  0.8764
13577SOL    HW142172   4.139   6.968  10.376  0.6532 -0.2725  0.1429
13577SOL    HW242173   4.249   7.070  10.391  2.1069 -1.7875  0.1384
13578SOL     OW42174   5.436   1.752   6.447 -0.1172 -0.4910  0.1191
13578SOL    HW142175   5.427   1.837   6.405  0.4960 -0.9789 -1.0505
13578SOL    HW242176   5.369   1.698   6.406 -2.4331  0.0679  2.7909
13579SOL     OW42177   1.828   4.765   8.659 -0.0217  0.1835  0.3533
13579SOL    HW142178   1.837   4.854   8.623 -0.9326  0.9083  1.8163
13579SOL    HW242179   1.768   4.721   8.600 -0.2926  0.8457  0.1197
13580SOL     OW42180   2.090   5.389   6.092 -0.5313 -0.4243 -0.3313
13580SOL    HW142181   2.122   5.299   6.094 -1.6354 -0.8168  0.4619
13580SOL    HW242182   2.087   5.415   6.184  0.7828  0.8102 -0.6108
13581SOL     OW42183   6.201   4.150  11.918 -0.0222  0.2360 -0.0950
13581SOL    HW142184   6.107   4.167  11.912 -0.1948 -0.5319  0.3238
13581SOL    HW242185   6.233   4.157  11.828 -0.5142  0.3081 -0.2666
13582SOL     OW42186   1.232   2.186  11.739 -0.0302 -0.1955 -0.0487
13582SOL    HW142187   1.216   2.281  11.733  0.2822 -0.0345  1.3461
13582SOL    HW242188   1.328   2.178  11.739 -0.0530 -0.5590 -0.5559
13583SOL     OW42189   6.088   6.335   8.664  0.0975  0.4177 -0.1320
13583SOL    HW142190   6.022   6.358   8.730  1.4837  0.2422  1.3960
13583SOL    HW242191   6.146   6.275   8.710  0.9897  0.1134 -1.6227
13584SOL     OW42192   7.588   5.583  10.899  0.3841  0.0022  0.0249
13584SOL    HW142193   7.682   5.576  10.915  0.3891  0.4008  0.1865
13584SOL    HW242194   7.567   5.507  10.845  0.8768  0.1526 -0.3803
13585SOL     OW42195   5.045   5.600  12.274 -0.0866  0.1144 -0.0260
13585SOL    HW142196   4.959   5.638  12.290  0.8299  2.4806 -0.3588
13585SOL    HW242197   5.082   5.585  12.361 -0.5499 -0.2554  0.1096
13586SOL     OW42198   4.647   1.867   4.762  0.2748  0.4372  0.0380
13586SOL    HW142199   4.708   1.879   4.690 -0.9977 -2.1249 -1.6088
13586SOL    HW242200   4.576   1.929   4.745  0.3067  0.3135 -0.5403
13587SOL     OW42201   7.178   1.658   5.350  0.6721 -0.1930 -0.0010
13587SOL    HW142202   7.235   1.698   5.285  0.2345  0.5568  0.0670
13587SOL    HW242203   7.207   1.693   5.434  0.5944 -0.3897  0.1103
13588SOL     OW42204   2.962   7.419   2.584  0.4185 -0.2352 -0.2746
13588SOL    HW142205   2.884   7.458   2.624 -1.0546 -1.5202 -1.7829
13588SOL    HW242206   2.951   7.435   2.490  1.9673 -0.4879 -0.5201
13589SOL     OW42207   5.123   3.520   5.618  0.2626  0.2428 -0.7339
13589SOL    HW142208   5.047   3.521   5.559 -0.7071  0.6971  0.4799
13589SOL    HW242209   5.085   3.523   5.706  1.6946  0.5584 -0.1019
13590SOL     OW42210   2.189   3.522   3.722 -0.4192  0.7065  0.3471
13590SOL    HW142211   2.162   3.572   3.645  0.4022  0.2884 -0.2218
13590SOL    HW242212   2.277   3.553   3.742 -0.4499  0.4898  0.8528
13591SOL     OW42213   7.080   7.021   5.026 -0.0156  0.1465 -0.2205
13591SOL    HW142214   7.055   6.929   5.015  0.1403  0.0602  0.1612
13591SOL    HW242215   7.098   7.031   5.119  1.3509  0.2182 -0.4704
13592SOL     OW42216   0.730   1.430  12.327 -0.3834 -0.1300 -0.4098
13592SOL    HW142217   0.720   1.349  12.278  0.6146 -0.3918 -0.2033
13592SOL    HW242218   0.643   1.470  12.325 -2.1549 -3.1997  3.0162
13593SOL     OW42219   1.778   6.788   4.353 -0.4057  0.3463 -0.5850
13593SOL    HW142220   1.718   6.718   4.326  0.4508 -0.7350  0.1890
13593SOL    HW242221   1.852   6.741   4.392  0.0692  1.7104  0.2106
13594SOL     OW42222   5.266   3.065   6.714  0.2692  0.3109 -0.6115
13594SOL    HW142223   5.359   3.059   6.692  0.7418 -1.6682  1.5481
13594SOL    HW242224   5.258   3.150   6.758  0.6331  1.2985 -2.3725
13595SOL     OW42225   7.777   1.982   5.271  0.2127  0.2167 -0.3844
13595SOL    HW142226   7.871   1.999   5.273  0.3664 -0.6308  0.5184
13595SOL    HW242227   7.752   1.980   5.363 -0.7912  0.8992 -0.6236
13596SOL     OW42228   6.227   5.447   0.670 -0.1097 -0.1422  0.0747
13596SOL    HW142229   6.184   5.532   0.658 -0.7316 -0.4623 -0.0056
13596SOL    HW242230   6.227   5.434   0.765  2.1144  1.0160  0.2893
13597SOL     OW42231   2.909   3.703   9.739  0.2077 -0.6378  0.6530
13597SOL    HW142232   2.950   3.620   9.764  2.2465 -0.0601 -0.5605
13597SOL    HW242233   2.982   3.763   9.724 -0.8756 -0.0584 -3.5225
13598SOL     OW42234   3.031   7.918   2.194 -0.1798  0.0113 -0.1081
13598SOL    HW142235   3.056   7.834   2.156  2.1448  0.6311 -0.1267
13598SOL    HW242236   3.014   7.974   2.118  0.0719  0.0534 -0.1329
13599SOL     OW42237   6.121   1.467   4.950 -0.2563 -0.3120 -0.3197
13599SOL    HW142238   6.207   1.499   4.924  0.1150 -0.6286  0.4803
13599SOL    HW242239   6.081   1.541   4.997  0.8491 -1.1347  2.0825
13600SOL     OW42240   4.527   7.223  10.764 -0.5753  0.0540 -0.3147
13600SOL    HW142241   4.498   7.237  10.674  0.5015 -1.7776 -1.0043
13600SOL    HW242242   4.620   7.246  10.763 -0.4305 -0.4768  0.2061
13601SOL     OW42243   0.553   6.930   8.212  0.3776 -0.1992 -0.2387
13601SOL    HW142244   0.490   6.905   8.279 -0.7737  0.5957 -0.9858
13601SOL    HW242245   0.580   7.019   8.236  0.8133 -0.3318 -0.2224
13602SOL     OW42246   1.723   6.414   9.060  0.1187  0.0167  0.6262
13602SOL    HW142247   1.770   6.486   9.018  3.6814 -2.6125 -0.3522
13602SOL    HW242248   1.747   6.421   9.152  1.4317 -0.5300  0.3448
13603SOL     OW42249   1.268   3.110  11.506 -0.3391 -0.6069 -0.5894
13603SOL    HW142250   1.291   3.108  11.413  1.8304  0.4915 -0.1342
13603SOL    HW242251   1.272   3.018  11.533  1.6781 -0.6926 -1.0199
13604SOL     OW42252   6.735   7.674   3.508 -0.1866 -0.3772  0.6118
13604SOL    HW142253   6.748   7.654   3.600 -1.7418 -0.5131  0.8284
13604SOL    HW242254   6.819   7.710   3.479  0.1776  0.1395  2.2037
13605SOL     OW42255   4.641   6.988  12.178 -0.2531 -0.1366 -0.8142
13605SOL    HW142256   4.564   6.967  12.231 -0.7842  2.2993 -0.4888
13605SOL    HW242257   4.708   6.924  12.205 -0.8605  0.3022  1.9923
13606SOL     OW42258   1.961   0.183   6.100  0.6197 -0.1879 -0.2534
13606SOL    HW142259   2.010   0.118   6.151 -0.8251 -0.8077  0.4046
13606SOL    HW242260   1.914   0.234   6.165  0.4808  0.4797 -0.8646
13607SOL     OW42261   0.751   1.054  10.355 -0.4246  0.0934 -0.9727
13607SOL    HW142262   0.713   1.046  10.268 -0.0481 -0.3496 -1.1013
13607SOL    HW242263   0.845   1.068  10.339 -0.7418  3.0092 -0.7149
13608SOL     OW42264   0.400   0.686  11.247 -0.0109  0.6539 -0.2943
13608SOL    HW142265   0.419   0.594  11.230 -2.8101  0.1118 -1.0119
13608SOL    HW242266   0.412   0.696  11.341 -0.7817 -0.7669 -0.0198
13609SOL     OW42267   5.341   5.685   5.739  0.3060  0.4715 -0.1909
13609SOL    HW142268   5.393   5.642   5.671  1.6900 -0.5498  1.4068
13609SOL    HW242269   5.288   5.615   5.776  1.6970  0.3083  1.6449
13610SOL     OW42270   5.818   6.510   3.144  0.2760 -0.8385  0.0312
13610SOL    HW142271   5.843   6.591   3.186 -0.7744 -0.9045  0.8064
13610SOL    HW242272   5.835   6.442   3.209  1.3415 -1.2794 -0.6800
13611SOL     OW42273   3.986   7.145   9.513 -0.0689  0.4630 -0.1072
13611SOL    HW142274   4.020   7.190   9.436 -0.5010 -1.8440 -1.7772
13611SOL    HW242275   3.929   7.209   9.556 -1.6273  1.1991 -3.0141
13612SOL     OW42276   1.453   4.300   9.941  0.4925 -0.6222  0.4733
13612SOL    HW142277   1.435   4.281  10.033  1.4319 -0.4954  0.6922
13612SOL    HW242278   1.499   4.384   9.943  0.7923 -0.7692 -0.0897
13613SOL     OW42279   0.395   1.230   6.265  0.1387  0.5651  0.1774
13613SOL    HW142280   0.458   1.158   6.268  0.6227  0.8737 -1.3867
13613SOL    HW242281   0.446   1.308   6.287 -0.3702  0.4650  1.8078
13614SOL     OW42282   0.829   0.559   1.170  0.0557  0.7828 -0.1514
13614SOL    HW142283   0.788   0.645   1.167  0.1889  0.8151 -1.8146
13614SOL    HW242284   0.864   0.552   1.259 -0.0664  2.3840  0.0449
13615SOL     OW42285   7.503   7.155   3.483  0.5835  0.3563 -0.1303
13615SOL    HW142286   7.557   7.077   3.493 -3.5829 -3.0580 -1.1469
13615SOL    HW242287   7.462   7.167   3.569 -1.9813 -1.4544 -0.9739
13616SOL     OW42288   3.246   7.678   6.448  0.1352  0.7190 -0.5483
13616SOL    HW142289   3.306   7.683   6.522 -0.7955  0.4352  0.2497
13616SOL    HW242290   3.173   7.625   6.480  0.6076 -1.1229 -2.3157
13617SOL     OW42291   3.027   1.356   0.700 -0.4214  0.3257  0.6345
13617SOL    HW142292   2.954   1.370   0.760 -1.2763 -0.1138 -0.2907
13617SOL    HW242293   3.007   1.411   0.624 -0.4694 -0.8044 -0.1884
13618SOL     OW42294   3.781   1.432   7.201 -1.0691 -0.6087  0.0210
13618SOL    HW142295   3.817   1.380   7.129  0.1828  2.0378 -1.4154
13618SOL    HW242296   3.830   1.404   7.278  2.2739  0.8596 -1.3715
13619SOL     OW42297   6.469   3.180   3.738  0.0649 -0.3598 -0.4512
13619SOL    HW142298   6.468   3.131   3.820  1.6122 -0.9249 -0.7267
13619SOL    HW242299   6.526   3.255   3.755  1.3314 -1.0890 -1.2948
13620SOL     OW42300   2.254   5.812   4.220  0.0012 -0.1507 -0.7520
13620SOL    HW142301   2.280   5.747   4.155 -3.0771 -2.2362 -0.1073
13620SOL    HW242302   2.235   5.891   4.169  0.1418 -0.9212 -2.0354
13621SOL     OW42303   1.239   5.705   5.790 -0.0929 -0.2491 -0.1817
13621SOL    HW142304   1.297   5.758   5.845  0.8634 -0.6911 -0.7377
13621SOL    HW242305   1.157   5.699   5.839 -0.3142  1.9215 -0.1981
13622SOL     OW42306   6.829   5.424  11.765  0.5467 -0.1550  0.2972
13622SOL    HW142307   6.757   5.436  11.702 -0.3918  0.4533  1.4567
13622SOL    HW242308   6.905   5.462  11.721 -0.4305  1.7601  0.1630
13623SOL     OW42309   7.819   0.811  10.271 -0.6188  0.6506  0.2032
13623SOL    HW142310   7.762   0.797  10.346  0.7429  0.6893  1.2859
13623SOL    HW242311   7.897   0.758  10.289  0.5796  2.1700 -0.1976
13624SOL     OW42312   7.841   5.649   9.469  0.1473 -0.0465  0.4072
13624SOL    HW142313   7.908   5.650   9.537  1.8496 -0.7047 -1.1733
13624SOL    HW242314   7.840   5.738   9.435 -0.1740  0.0966  0.7835
13625SOL     OW42315   0.905   5.766   0.709 -0.4913  0.2476 -0.2104
13625SOL    HW142316   0.910   5.861   0.704 -2.2635  0.3223 -0.8912
13625SOL    HW242317   0.816   5.747   0.738 -0.1245 -1.2136  0.0656
13626SOL     OW42318   7.098   4.540   2.145 -0.1181  0.1298  0.2786
13626SOL    HW142319   7.136   4.455   2.165  0.9721  0.7234  0.8887
13626SOL    HW242320   7.151   4.602   2.196 -1.4016  1.0980  0.4882
13627SOL     OW42321   3.177   6.796   3.521  0.7278  0.2453  0.0798
13627SOL    HW142322   3.122   6.807   3.599  0.2893  0.4585 -0.2580
13627SOL    HW242323   3.117   6.801   3.448  0.9985 -0.9576 -0.2422
13628SOL     OW42324   1.508   4.216   0.862  0.4506  0.1500 -0.3189
13628SOL    HW142325   1.484   4.285   0.923  0.8094 -0.7049  0.8151
13628SOL    HW242326   1.493   4.135   0.910  0.6732 -0.5570 -1.3944
13629SOL     OW42327   4.391   5.690   3.412 -0.3425 -0.1537  0.1803
13629SOL    HW142328   4.455   5.736   3.467  1.0435 -1.2050 -0.5033
13629SOL    HW242329   4.333   5.760   3.380 -0.1438  0.7026  1.5603
13630SOL     OW42330   1.727   3.345  11.503  0.1003  0.4678  0.4300
13630SOL    HW142331   1.788   3.378  11.437  0.2937 -0.5005  0.1129
13630SOL    HW242332   1.733   3.409  11.574  2.4678 -0.2658  0.9682
13631SOL     OW42333   6.867   6.537  11.592  0.4827  0.1173  0.0751
13631SOL    HW142334   6.776   6.531  11.620  0.4649  2.0320  0.5609
13631SOL    HW242335   6.862   6.552  11.497  0.3404 -0.6478 -0.0442
13632SOL     OW42336   7.272   0.134  12.042 -0.2141 -0.3967 -0.3060
13632SOL    HW142337   7.357   0.116  12.082 -0.1452 -0.1345 -0.3311
13632SOL    HW242338   7.287   0.125  11.948 -0.0099  0.4493 -0.3659
13633SOL     OW42339   3.893   6.456   1.724  0.0623  0.3037  0.3474
13633SOL    HW142340   3.881   6.410   1.807  2.7790 -2.0191 -0.3755
13633SOL    HW242341   3.960   6.522   1.742  1.0754 -0.5825 -0.0526
13634SOL     OW42342   7.561   5.533   7.601  0.5418 -0.2317  0.2268
13634SOL    HW142343   7.546   5.467   7.669 -0.0324 -0.5784 -0.2241
13634SOL    HW242344   7.655   5.549   7.604  0.5389 -0.3211  1.0288
13635SOL     OW42345   7.404   0.405  12.325  0.4490  0.2226 -0.0878
13635SOL    HW142346   7.426   0.340  12.258  2.2042  1.7940 -1.1306
13635SOL    HW242347   7.425   0.363  12.408  2.7006 -0.1796 -0.8056
13636SOL     OW42348   5.600   2.314   3.972 -0.3199 -0.5649 -0.3310
13636SOL    HW142349   5.663   2.318   3.900  0.2180 -1.0120  0.1062
13636SOL    HW242350   5.647   2.350   4.047 -0.6231 -0.7894 -0.0286
13637SOL     OW42351   5.069   0.005   3.367  0.2264 -0.0845 -0.3133
13637SOL    HW142352   5.093   0.089   3.326 -0.5168 -0.1723 -0.9424
13637SOL    HW242353   5.133  -0.057   3.334 -0.7235 -0.2832 -1.8563
13638SOL     OW42354   6.447   5.566  12.184  0.2643  0.1383 -0.4940
13638SOL    HW142355   6.356   5.592  12.173 -0.6730 -1.8471  1.8461
13638SOL    HW242356   6.476   5.613  12.263  0.1819 -1.7112  0.6861
13639SOL     OW42357   5.320   2.626  10.265 -0.1464 -0.0450 -0.5867
13639SOL    HW142358   5.247   2.583  10.221 -1.4920 -0.6913  2.0706
13639SOL    HW242359   5.288   2.714  10.285 -0.4810 -0.5167  1.1015
13640SOL     OW42360   5.897   6.326   3.953 -0.5662  0.4452  0.4118
13640SOL    HW142361   5.889   6.348   3.860  0.2100  0.8362  0.4310
13640SOL    HW242362   5.952   6.248   3.954  1.9603  2.1388  0.6814
13641SOL     OW42363   6.363   5.514   4.196  0.6160  0.6051  0.7002
13641SOL    HW142364   6.387   5.578   4.129 -2.0543 -0.2047 -1.1724
13641SOL    HW242365   6.396   5.431   4.164  1.2741  0.5053  1.5674
13642SOL     OW42366   2.111   2.273   6.436  0.4262  0.2952 -0.0136
13642SOL    HW142367   2.162   2.216   6.494 -1.2481  0.3980  1.6577
13642SOL    HW242368   2.040   2.306   6.491 -0.7463  1.1149 -1.9084
13643SOL     OW42369   1.118   3.053   2.922  0.4841  0.5589  0.7578
13643SOL    HW142370   1.181   2.982   2.932  1.1501  0.9681 -0.3532
13643SOL    HW242371   1.049   3.017   2.866  0.1022  0.3441  1.3643
13644SOL     OW42372   1.465   5.137   1.740  0.6394  0.8282 -0.2112
13644SOL    HW142373   1.485   5.208   1.802  1.4264  0.8182 -0.4405
13644SOL    HW242374   1.455   5.059   1.795  2.2808  0.6258 -0.1391
13645SOL     OW42375   7.871   4.424   1.865 -0.2407 -0.0596 -0.2331
13645SOL    HW142376   7.896   4.445   1.775 -2.0139 -0.8055 -0.9404
13645SOL    HW242377   7.780   4.394   1.859 -0.7743  0.8866  1.9561
13646SOL     OW42378   3.263   1.002   0.549  0.4611  0.1895 -0.0065
13646SOL    HW142379   3.178   0.985   0.509 -0.0836 -0.2563  1.3074
13646SOL    HW242380   3.303   1.070   0.493 -0.9444  0.7537 -0.3607
13647SOL     OW42381   1.573   7.080   2.478  0.2615 -0.4214 -0.0455
13647SOL    HW142382   1.634   7.011   2.453  2.7267  1.8577 -0.7814
13647SOL    HW242383   1.614   7.122   2.554 -0.6610  0.8275 -0.2012
13648SOL     OW42384   4.260   3.197   0.537 -0.4127 -0.0869  0.0767
13648SOL    HW142385   4.345   3.210   0.494  0.4417 -1.7304  1.1447
13648SOL    HW242386   4.195   3.221   0.471  0.8810  1.1651 -0.7813
13649SOL     OW42387   7.741   0.310   6.889 -1.2625 -0.2350  0.2131
13649SOL    HW142388   7.697   0.365   6.953 -1.0959  0.5025 -0.2934
13649SOL    HW242389   7.700   0.224   6.899 -0.1443 -0.5943  2.4138
13650SOL     OW42390   4.015   5.636   5.810  0.0384 -0.3919 -0.0785
13650SOL    HW142391   3.968   5.560   5.775  0.5157 -0.0930 -1.4118
13650SOL    HW242392   4.024   5.695   5.735 -2.0403  1.8838  1.3312
13651SOL     OW42393   0.648   1.087  11.573 -0.5878 -0.2978  0.1605
13651SOL    HW142394   0.632   1.154  11.639 -0.7485  0.1761 -0.3611
13651SOL    HW242395   0.655   1.134  11.490  0.2147 -0.8249 -0.0882
13652SOL     OW42396   3.068   5.962   5.335 -0.0621 -0.1444  0.2564
13652SOL    HW142397   3.072   5.901   5.262  1.3741  1.9122 -1.5121
13652SOL    HW242398   2.997   6.022   5.313 -2.1032 -1.5857  2.4315
13653SOL     OW42399   4.977   3.990  12.215  0.4981  0.3379 -0.5252
13653SOL    HW142400   4.881   3.995  12.214  0.3977 -0.9148  0.5929
13653SOL    HW242401   5.005   4.081  12.226 -0.6424  0.4910  1.6147
13654SOL     OW42402   6.013   6.071  12.012  0.3788 -0.2827 -0.4180
13654SOL    HW142403   5.989   6.154  12.053  0.0240 -0.9373  0.7496
13654SOL    HW242404   6.101   6.052  12.046  0.1686 -0.7268 -0.1116
13655SOL     OW42405   4.889   4.831  10.368 -0.3458  0.3936 -0.6456
13655SOL    HW142406   4.910   4.902  10.428 -1.5663  0.2337  0.0035
13655SOL    HW242407   4.871   4.756  10.425  0.8454 -0.4346 -1.3140
13656SOL     OW42408   2.614   0.343   6.330  0.0803 -0.0536  0.6555
13656SOL    HW142409   2.654   0.394   6.259  0.5411  0.4372  1.2476
13656SOL    HW242410   2.675   0.270   6.344 -0.6418 -0.8619 -0.2753
13657SOL     OW42411   2.667   7.626   7.520  0.9506 -0.0812 -0.0924
13657SOL    HW142412   2.682   7.642   7.613  1.9640  1.5133 -0.4928
13657SOL    HW242413   2.595   7.563   7.518 -0.5253  1.4121  1.7402
13658SOL     OW42414   4.099   0.898   0.222  0.1474 -0.3216 -0.1674
13658SOL    HW142415   4.115   0.804   0.211  0.1707 -0.3082 -0.2501
13658SOL    HW242416   4.132   0.917   0.310 -0.4641 -0.5192  0.1083
13659SOL     OW42417   5.043   5.782   1.275  0.3057  0.4228 -0.5238
13659SOL    HW142418   5.137   5.778   1.259  0.4907  1.6700  0.1530
13659SOL    HW242419   5.006   5.822   1.197  0.3592  0.1114 -0.7091
13660SOL     OW42420   5.541   3.896   3.539  0.1046 -0.0376  0.0650
13660SOL    HW142421   5.500   3.969   3.494 -3.3540 -2.1087 -0.5405
13660SOL    HW242422   5.562   3.833   3.470  3.4606  0.4014  0.5071
13661SOL     OW42423   1.628   6.180   6.512 -0.1884 -0.7348 -0.0415
13661SOL    HW142424   1.671   6.255   6.553  1.6360 -0.2476 -2.6040
13661SOL    HW242425   1.674   6.104   6.546  1.7484 -0.3060 -1.5594
13662SOL     OW42426   3.415   0.514   9.947 -0.0029  0.1093 -0.0007
13662SOL    HW142427   3.511   0.517   9.950 -0.0148  2.1344 -0.1812
13662SOL    HW242428   3.394   0.421   9.939  1.9474 -0.3550 -0.2316
13663SOL     OW42429   5.122   0.291   5.923  0.3414 -0.2934 -0.1771
13663SOL    HW142430   5.051   0.320   5.866  1.2845  0.6330 -0.9130
13663SOL    HW242431   5.145   0.369   5.975  0.0450 -0.9016  0.9044
13664SOL     OW42432   3.089   7.850   9.422 -0.5045  0.0722  0.5056
13664SOL    HW142433   3.011   7.880   9.469 -0.3361  2.0667 -0.3673
13664SOL    HW242434   3.060   7.842   9.331 -0.1965 -1.2551  0.5099
13665SOL     OW42435   5.298   3.487   7.267  0.5871  0.0596 -0.1906
13665SOL    HW142436   5.268   3.428   7.335  0.2227  0.4027 -0.0549
13665SOL    HW242437   5.232   3.481   7.198  0.9866 -0.3368 -0.5486
13666SOL     OW42438   2.413   6.158   0.787  0.0931  0.0370  0.1928
13666SOL    HW142439   2.332   6.200   0.814  0.3518  0.5932  0.1149
13666SOL    HW242440   2.422   6.082   0.845  0.9738  1.5574  2.1743
13667SOL     OW42441   6.237   7.148  12.194  0.5588  0.3366  0.6440
13667SOL    HW142442   6.190   7.115  12.271 -0.6204 -3.1291 -1.3279
13667SOL    HW242443   6.312   7.090  12.184  0.9001  0.9393 -0.5996
13668SOL     OW42444   3.752   1.739   6.903  0.2736 -0.3159 -0.3870
13668SOL    HW142445   3.759   1.708   6.993 -0.3695  1.1639  0.2118
13668SOL    HW242446   3.677   1.693   6.866 -1.3147  1.1639  0.8083
13669SOL     OW42447   6.934   0.105   6.447  0.1912 -0.0595  0.0325
13669SOL    HW142448   7.017   0.149   6.468  0.6501 -1.0922  0.4201
13669SOL    HW242449   6.867   0.161   6.486  0.8449 -0.3368  1.6049
13670SOL     OW42450   7.288   3.537   3.569 -0.5978  0.5580  0.1053
13670SOL    HW142451   7.289   3.594   3.646 -2.1534 -0.6215  1.0799
13670SOL    HW242452   7.368   3.558   3.521  0.3098  1.4823  1.9429
13671SOL     OW42453   4.034   0.681   6.510  0.3846 -0.2392 -0.5253
13671SOL    HW142454   3.952   0.673   6.461  1.5281  0.2730 -2.6606
13671SOL    HW242455   4.036   0.604   6.566 -0.8908 -1.0241 -1.5005
13672SOL     OW42456   4.441   5.990  12.428 -0.1246 -0.2128 -0.1672
13672SOL    HW142457   4.523   5.979  12.476 -0.2069 -3.2367 -0.5215
13672SOL    HW242458   4.398   6.064  12.470  0.2813 -1.9718  3.8366
13673SOL     OW42459   6.443   7.696   1.084  0.5599 -0.3900 -0.0948
13673SOL    HW142460   6.515   7.680   1.022 -1.2168 -1.0468 -2.0958
13673SOL    HW242461   6.435   7.792   1.086 -0.7755 -0.3704 -2.7118
13674SOL     OW42462   4.763   5.772   2.987 -0.4247  0.6309  0.1087
13674SOL    HW142463   4.715   5.690   2.996 -1.4086  1.1693 -0.1595
13674SOL    HW242464   4.696   5.838   2.971  0.4581  1.2733 -1.1600
13675SOL     OW42465   5.714   1.962   5.783 -0.0397  0.3489 -0.1232
13675SOL    HW142466   5.714   1.992   5.692  0.2193 -1.8246 -0.8837
13675SOL    HW242467   5.625   1.928   5.797  0.9076 -2.6483 -0.7922
13676SOL     OW42468   6.072   4.623   8.711  0.0552 -0.6901  0.0506
13676SOL    HW142469   5.978   4.605   8.707  0.0545 -0.7123  0.1693
13676SOL    HW242470   6.080   4.690   8.780 -0.0675  0.5629 -1.1027
13677SOL     OW42471   1.478   5.951   4.640  0.3258 -0.0804 -0.0547
13677SOL    HW142472   1.506   5.862   4.615  0.2158  0.3716 -1.8659
13677SOL    HW242473   1.384   5.943   4.657  0.3042 -0.2855 -0.2767
13678SOL     OW42474   5.749   2.634   7.025 -0.2158  0.0733 -0.5959
13678SOL    HW142475   5.813   2.563   7.017  0.6675  0.8864 -0.9437
13678SOL    HW242476   5.707   2.636   6.939 -0.0031  0.1918 -0.6981
13679SOL     OW42477   5.328   1.722   1.280 -0.1288 -0.0087  0.0719
13679SOL    HW142478   5.322   1.687   1.191 -1.4711 -1.6097  0.7322
13679SOL    HW242479   5.421   1.718   1.302  0.1297 -0.2139 -1.0107
13680SOL     OW42480   3.159   1.918   2.891  0.5672 -0.1281  0.1754
13680SOL    HW142481   3.135   2.006   2.860  1.2758 -0.3431 -1.0787
13680SOL    HW242482   3.077   1.869   2.887  0.0170  0.6379  1.5515
13681SOL     OW42483   7.115   6.789   8.717  0.1910 -0.7501 -0.2112
13681SOL    HW142484   7.121   6.721   8.650 -0.2048 -1.2318  0.2385
13681SOL    HW242485   7.021   6.800   8.733  0.2671 -0.3863  0.0140
13682SOL     OW42486   3.360   7.758   4.646  0.6958 -0.4758 -0.2110
13682SOL    HW142487   3.364   7.717   4.560 -1.5569 -1.5020  0.1015
13682SOL    HW242488   3.322   7.691   4.703 -0.5670  1.1113  0.9178
13683SOL     OW42489   2.943   5.429   8.306 -1.0706  0.3636  0.0895
13683SOL    HW142490   2.942   5.374   8.228 -0.7450 -0.2682  0.5233
13683SOL    HW242491   2.997   5.381   8.369 -0.3793  1.4068  0.3176
13684SOL     OW42492   6.081   0.694   2.612  0.0925 -0.0135 -0.4203
13684SOL    HW142493   6.099   0.609   2.572 -0.6309 -0.9011  1.0789
13684SOL    HW242494   5.994   0.685   2.650  0.6167  0.9026  1.0595
13685SOL     OW42495   6.231   0.231   0.550 -0.1900 -0.3432 -0.4005
13685SOL    HW142496   6.270   0.234   0.638 -1.1397 -1.1455  0.0651
13685SOL    HW242497   6.144   0.268   0.561  0.4264  1.5744 -1.4682
13686SOL     OW42498   7.374   4.683   1.417  0.6202  0.7462  0.0944
13686SOL    HW142499   7.435   4.659   1.348  1.2607  0.8485  0.6129
13686SOL    HW242500   7.429   4.716   1.488 -0.1496  2.7225 -0.1647
13687SOL     OW42501   7.633   3.318  11.417  0.7881 -0.3900 -0.0382
13687SOL    HW142502   7.653   3.397  11.468  1.0318 -0.7277  0.3949
13687SOL    HW242503   7.537   3.317  11.412  0.8012  0.8931 -1.5852
13688SOL     OW42504   3.104   7.698   5.606  0.1717  0.2750  0.1189
13688SOL    HW142505   3.044   7.700   5.680  1.3401  0.9646  1.0818
13688SOL    HW242506   3.055   7.737   5.534 -0.8699 -0.1034  0.6055
13689SOL     OW42507   0.815   4.516   7.579 -0.0849 -0.3494  0.3861
13689SOL    HW142508   0.754   4.483   7.645  0.5544 -3.3859 -0.3818
13689SOL    HW242509   0.901   4.492   7.613  0.3861 -0.0481 -0.5812
13690SOL     OW42510   1.133   2.867   6.111 -0.6284  0.1969 -0.1043
13690SOL    HW142511   1.207   2.897   6.059 -0.1680  0.5180  0.7227
13690SOL    HW242512   1.150   2.774   6.127  0.2471  0.5408  1.1206
13691SOL     OW42513   2.118   6.462   5.854  0.3041  0.3767 -0.1990
13691SOL    HW142514   2.145   6.507   5.774  0.6872  2.6496  1.1275
13691SOL    HW242515   2.060   6.524   5.898 -0.5030 -1.1276  0.9492
13692SOL     OW42516   4.967   2.332   3.308 -0.0534 -0.2925  0.3408
13692SOL    HW142517   4.882   2.344   3.266 -0.5325 -0.8888  1.1093
13692SOL    HW242518   5.008   2.261   3.259 -0.4994 -0.8067  0.6916
13693SOL     OW42519   2.117   4.583   4.773  0.0049  0.1117 -0.7272
13693SOL    HW142520   2.130   4.631   4.691  0.5909  0.1598 -0.6069
13693SOL    HW242521   2.088   4.496   4.745  1.4894 -0.3020 -1.0455
13694SOL     OW42522   2.919   6.014   4.905  0.3501  0.8015 -0.2576
13694SOL    HW142523   2.891   5.945   4.845  1.2841  1.5687 -1.6132
13694SOL    HW242524   2.982   6.066   4.855 -0.9541  3.1668  0.3983
13695SOL     OW42525   5.336   5.952   5.022 -0.6121  0.1695  0.0703
13695SOL    HW142526   5.352   6.035   5.066  2.9485 -0.3654  0.0515
13695SOL    HW242527   5.401   5.949   4.952 -0.4902 -2.6905  0.1974
13696SOL     OW42528   5.896   0.243   2.505  0.1290 -0.0384 -0.0943
13696SOL    HW142529   5.805   0.266   2.521  0.0176 -1.2676  1.2196
13696SOL    HW242530   5.923   0.299   2.432 -1.3071  1.2069  0.2953
13697SOL     OW42531   0.863   4.486   1.071 -0.0566  0.0616  0.4140
13697SOL    HW142532   0.949   4.518   1.044  0.2074  0.1297  1.3085
13697SOL    HW242533   0.874   4.391   1.079  0.1002  0.1404  1.1236
13698SOL     OW42534   5.802   7.817   8.535 -0.7261  0.3775  0.3507
13698SOL    HW142535   5.800   7.901   8.581  0.5199  0.1990  0.7784
13698SOL    HW242536   5.770   7.836   8.447 -1.2990  1.1160  0.7099
13699SOL     OW42537   3.717   1.268   0.541  0.2820  0.5525  0.0110
13699SOL    HW142538   3.787   1.330   0.560  1.7304 -0.3912 -1.8929
13699SOL    HW242539   3.748   1.219   0.465 -2.1387 -0.4289 -0.4469
13700SOL     OW42540   0.958   1.067   6.176 -0.2000  0.6182  0.3851
13700SOL    HW142541   1.023   1.125   6.135 -0.8959  1.5942  0.6060
13700SOL    HW242542   0.985   1.060   6.267  1.0469 -1.1162 -0.0817
13701SOL     OW42543   0.612   2.928   3.289  0.6489  0.2145  0.1270
13701SOL    HW142544   0.672   2.928   3.215  0.1877 -0.1943 -0.2520
13701SOL    HW242545   0.626   2.843   3.331  0.5050  0.2127  0.1718
13702SOL     OW42546   4.198   7.634   7.827  0.4634 -0.2606  0.3044
13702SOL    HW142547   4.200   7.539   7.822 -0.4069 -0.2994  0.6379
13702SOL    HW242548   4.111   7.656   7.859  1.0309  0.5988  1.3421
13703SOL     OW42549   0.770   0.205  10.490  0.0495 -0.2304  0.0116
13703SOL    HW142550   0.795   0.272  10.427  0.3759 -0.1506  0.2243
13703SOL    HW242551   0.765   0.251  10.574 -2.4443  0.1168 -0.2658
13704SOL     OW42552   5.694   0.519   7.869 -0.2669  0.3797 -0.5783
13704SOL    HW142553   5.679   0.426   7.850  0.8559 -0.4622  2.1525
13704SOL    HW242554   5.748   0.550   7.796  3.0050 -2.3107  0.4300
13705SOL     OW42555   5.206   3.263   1.007 -0.0091  0.2322 -0.1809
13705SOL    HW142556   5.222   3.327   0.938 -0.0484 -0.9126 -1.2835
13705SOL    HW242557   5.292   3.225   1.025 -0.2120 -0.4658 -0.6247
13706SOL     OW42558   7.153   1.026   1.834 -0.1532  0.6952  0.5813
13706SOL    HW142559   7.181   1.058   1.748 -0.1969 -0.6405  0.0400
13706SOL    HW242560   7.133   0.933   1.819  1.0446  0.1237  2.3197
13707SOL     OW42561   7.049   5.313   6.122 -0.0506 -0.3035 -0.0346
13707SOL    HW142562   7.002   5.355   6.194  1.5654  0.3930  0.6553
13707SOL    HW242563   7.129   5.279   6.162 -0.2519 -2.0536 -1.0427
13708SOL     OW42564   0.617   6.958   5.878 -0.0619  0.1414  0.4397
13708SOL    HW142565   0.596   7.051   5.876 -0.9449 -0.0548 -0.3624
13708SOL    HW242566   0.629   6.934   5.786  1.4924 -0.2670  0.7126
13709SOL     OW42567   1.494   5.794   0.552  0.1638 -0.0715 -0.1724
13709SOL    HW142568   1.557   5.845   0.604  0.1242 -0.5104  0.3177
13709SOL    HW242569   1.478   5.848   0.475 -0.3948  0.9903  0.6486
13710SOL     OW42570   0.341   6.557   5.314  0.6555  0.1408  0.0120
13710SOL    HW142571   0.336   6.468   5.280  0.4373 -0.2695  1.0627
13710SOL    HW242572   0.249   6.582   5.327  0.7249 -0.2626  1.5913
13711SOL     OW42573   7.225   1.913   2.160  0.0904  0.6752  0.2195
13711SOL    HW142574   7.257   1.994   2.199  0.5715 -0.0138  1.2957
13711SOL    HW242575   7.297   1.851   2.172 -0.7775 -0.2704  0.6283
13712SOL     OW42576   2.563   3.569  11.282 -0.2403  0.2694 -0.3088
13712SOL    HW142577   2.598   3.482  11.305  1.0582  0.4212 -1.5690
13712SOL    HW242578   2.541   3.609  11.366  0.7352 -0.6380  0.4099
13713SOL     OW42579   7.338   7.708   7.037  0.0925  0.1445 -0.1969
13713SOL    HW142580   7.382   7.736   6.956 -0.3329  0.4828 -0.3145
13713SOL    HW242581   7.353   7.780   7.098 -0.2711  0.2517 -0.2298
13714SOL     OW42582   3.464   7.259   2.697 -0.3434  0.0891  0.6061
13714SOL    HW142583   3.368   7.256   2.705 -0.3843 -1.6330 -0.0736
13714SOL    HW242584   3.482   7.226   2.610  0.9098 -0.1612  0.9392
13715SOL     OW42585   3.959   1.924   2.457  0.3109  0.0972 -0.3407
13715SOL    HW142586   3.981   1.858   2.523  0.1650 -0.2776 -0.6599
13715SOL    HW242587   3.892   1.978   2.499 -0.1982 -0.4881 -0.3787
13716SOL     OW42588   1.411   5.050   2.337  0.2743 -0.3510  0.4664
13716SOL    HW142589   1.418   4.968   2.387  1.6837 -1.8515 -2.0059
13716SOL    HW242590   1.371   5.025   2.254  0.4118  1.5526 -0.2208
13717SOL     OW42591   7.158   2.549  10.266 -0.4534 -0.4167 -0.1424
13717SOL    HW142592   7.101   2.532  10.191 -0.6701 -0.1714 -0.0354
13717SOL    HW242593   7.142   2.477  10.326 -0.7514 -0.2763 -0.0536
13718SOL     OW42594   2.817   7.734  11.853 -0.3922 -0.0244  0.0479
13718SOL    HW142595   2.752   7.790  11.810 -2.3428 -1.4036  1.0552
13718SOL    HW242596   2.766   7.660  11.887  1.8929 -1.7435 -0.0622
13719SOL     OW42597   5.324   6.699   6.777 -0.0188 -0.3725 -0.5169
13719SOL    HW142598   5.402   6.738   6.738  0.5691 -0.9638  0.0396
13719SOL    HW242599   5.320   6.736   6.865 -0.5107 -0.1586 -0.6257
13720SOL     OW42600   6.112   7.626   5.793 -0.0701  0.2367 -0.2347
13720SOL    HW142601   6.204   7.648   5.811 -0.2480  0.7822  0.0182
13720SOL    HW242602   6.062   7.679   5.855 -0.6398  1.1668 -1.4484
13721SOL     OW42603   6.908   6.721  10.849  0.1528  0.6837  0.2610
13721SOL    HW142604   6.962   6.651  10.887 -1.1255  0.5697  2.0055
13721SOL    HW242605   6.930   6.799  10.900  0.0414  1.0772 -0.2841
13722SOL     OW42606   2.558   0.281   1.570 -0.3675  0.7566 -0.0213
13722SOL    HW142607   2.512   0.269   1.487 -0.1012 -0.0719 -0.0554
13722SOL    HW242608   2.524   0.364   1.605 -1.6043  0.3553 -0.2301
13723SOL     OW42609   6.513   7.309  12.261 -0.3581 -0.5672  0.8899
13723SOL    HW142610   6.485   7.239  12.202  1.2259 -1.2709  0.9331
13723SOL    HW242611   6.465   7.386  12.230  1.2000 -0.6406 -2.0970
13724SOL     OW42612   2.451   2.837   0.452  0.2563 -0.4696 -0.1336
13724SOL    HW142613   2.482   2.833   0.542 -1.7558  1.2430  0.7369
13724SOL    HW242614   2.521   2.880   0.404  1.1632 -0.9601  0.7124
13725SOL     OW42615   2.331   1.743   9.249 -0.0247  0.1246  0.1250
13725SOL    HW142616   2.385   1.669   9.224 -3.3453 -1.9528 -1.6503
13725SOL    HW242617   2.292   1.718   9.333 -1.7523 -0.6304 -0.8414
13726SOL     OW42618   0.086   2.913   6.543 -0.2912  0.1126 -0.4346
13726SOL    HW142619   0.071   3.000   6.581 -0.7861  1.0605 -2.6811
13726SOL    HW242620   0.082   2.854   6.618 -0.3950  1.9616  1.0987
13727SOL     OW42621   1.390   3.213  12.003  0.0329 -0.5569 -0.6419
13727SOL    HW142622   1.317   3.255  11.956 -0.2317  0.1750  0.3784
13727SOL    HW242623   1.469   3.251  11.964 -0.1133 -1.3410 -1.7461
13728SOL     OW42624   6.952   3.431   4.883  0.1633 -0.6302 -1.0641
13728SOL    HW142625   6.900   3.500   4.925  0.0990 -1.5717  0.4839
13728SOL    HW242626   6.970   3.464   4.795  1.5254  2.1217  0.1207
13729SOL     OW42627   4.763   0.602   4.722  0.4771 -0.8613  0.3994
13729SOL    HW142628   4.768   0.536   4.792  0.6471 -1.0287  0.2327
13729SOL    HW242629   4.758   0.686   4.768  1.2959 -0.9207  0.6158
13730SOL     OW42630   1.824   6.597  11.302  0.8654  0.2175  0.4260
13730SOL    HW142631   1.859   6.643  11.379  1.0601 -0.5443  0.8116
13730SOL    HW242632   1.764   6.532  11.339 -0.2119  0.8522 -0.1705
13731SOL     OW42633   1.229   2.880  10.282  0.0615  0.0889 -0.1529
13731SOL    HW142634   1.193   2.969  10.289 -1.1467 -0.3266 -0.7261
13731SOL    HW242635   1.320   2.889  10.309  0.4568  1.8402 -1.8105
13732SOL     OW42636   6.745   7.630   2.233  0.1191 -0.5356  0.4302
13732SOL    HW142637   6.697   7.572   2.292  0.3833 -1.3250 -0.1096
13732SOL    HW242638   6.678   7.678   2.185 -0.0992 -0.1634  1.1015
13733SOL     OW42639   7.378   5.287   5.392 -0.7144 -0.1751  0.0842
13733SOL    HW142640   7.338   5.312   5.475 -2.1142 -2.8649  0.3332
13733SOL    HW242641   7.416   5.201   5.408  0.5384  0.0015 -1.6246
13734SOL     OW42642   1.811   2.023  11.580 -0.4659  0.1226  0.3631
13734SOL    HW142643   1.890   2.010  11.527  0.3108  1.2159  1.2128
13734SOL    HW242644   1.841   2.069  11.658 -1.8788  0.1505  0.9267
13735SOL     OW42645   3.505   4.601   9.938  0.0035  0.7055 -0.3785
13735SOL    HW142646   3.599   4.591   9.921  0.1675 -1.1908  1.3557
13735SOL    HW242647   3.501   4.653  10.019 -0.4762  1.1041 -0.6508
13736SOL     OW42648   7.698   2.947   6.285  0.8696 -0.3190  0.2117
13736SOL    HW142649   7.645   2.999   6.224  0.0795  0.1066  1.2181
13736SOL    HW242650   7.726   2.871   6.235  3.2088  1.6483 -1.7691
13737SOL     OW42651   4.002   0.389   6.623 -0.2921 -0.2938  0.5122
13737SOL    HW142652   3.977   0.377   6.715 -0.1508 -0.9067  0.4728
13737SOL    HW242653   3.921   0.374   6.574 -0.6652  1.2686  0.6036
13738SOL     OW42654   1.159   4.052   5.543 -0.0295  0.3759 -0.4819
13738SOL    HW142655   1.180   3.991   5.472  0.4412 -0.4575  0.3507
13738SOL    HW242656   1.151   3.996   5.620 -0.3279  1.2955  0.1671
13739SOL     OW42657   3.401   1.794   2.683 -0.7778 -0.0137 -0.2112
13739SOL    HW142658   3.489   1.806   2.649 -0.3354 -0.6945  0.6449
13739SOL    HW242659   3.404   1.834   2.771 -1.3053 -0.0914 -0.1527
13740SOL     OW42660   1.164   0.549   8.066 -0.1578 -0.3862  0.3738
13740SOL    HW142661   1.174   0.615   8.135  1.0319 -0.1937  0.0463
13740SOL    HW242662   1.240   0.563   8.009 -0.0320 -1.8673  0.1517
13741SOL     OW42663   0.612   1.227  10.489  0.8083  0.5417 -0.3789
13741SOL    HW142664   0.667   1.161  10.447  1.4639  1.4931 -1.0433
13741SOL    HW242665   0.547   1.251  10.422 -0.3214 -0.4220  0.3268
13742SOL     OW42666   0.385   2.017   0.667  0.0208 -0.6178 -0.0958
13742SOL    HW142667   0.448   1.991   0.734  0.2815 -2.3563 -0.9528
13742SOL    HW242668   0.304   2.036   0.715  1.1468  1.7648  1.0429
13743SOL     OW42669   3.766   7.704   8.678 -0.1402 -0.2211  0.1098
13743SOL    HW142670   3.808   7.749   8.605  0.5581  1.0844  1.2840
13743SOL    HW242671   3.817   7.728   8.755  0.2525 -3.0310  0.8331
13744SOL     OW42672   3.614   6.631   1.438  0.0775 -0.1621  0.1791
13744SOL    HW142673   3.674   6.702   1.417 -0.7586  0.2815 -0.7881
13744SOL    HW242674   3.583   6.599   1.353 -0.2566 -1.0764  0.6266
13745SOL     OW42675   6.392   2.292   0.008 -0.0383  0.7464  0.0313
13745SOL    HW142676   6.382   2.377   0.050  0.3328 -0.1299  2.0376
13745SOL    HW242677   6.325   2.237   0.049 -0.5683  0.1560 -1.5458
13746SOL     OW42678   1.330   1.774   2.266  0.0465 -0.1854 -0.3929
13746SOL    HW142679   1.410   1.723   2.251 -0.4972 -0.7128 -1.7082
13746SOL    HW242680   1.349   1.861   2.231  0.1904 -0.1766 -0.2933
13747SOL     OW42681   4.535   6.604   7.697  0.1910  0.4325 -0.0663
13747SOL    HW142682   4.623   6.570   7.717 -0.3245 -0.4262  0.7948
13747SOL    HW242683   4.539   6.697   7.723  1.4747  0.9941 -2.0390
13748SOL     OW42684   4.575   2.879   0.290 -0.0186 -0.1114  0.2668
13748SOL    HW142685   4.636   2.841   0.353  1.1647  2.2438  0.6603
13748SOL    HW242686   4.599   2.838   0.206  1.2703 -0.1663  0.6429
13749SOL     OW42687   7.630   5.346   7.360 -0.6534  0.5392  0.0501
13749SOL    HW142688   7.688   5.336   7.435  2.3553  1.3058 -1.9835
13749SOL    HW242689   7.609   5.440   7.358 -1.8208  0.3110  0.6168
13750SOL     OW42690   5.477   7.730   5.196  0.2927 -0.0040 -0.3042
13750SOL    HW142691   5.450   7.812   5.237 -0.1886 -0.3688  0.1057
13750SOL    HW242692   5.417   7.719   5.122  0.0271 -0.2467 -0.0540
13751SOL     OW42693   2.940   6.210   4.287 -0.4105 -0.6228 -0.1713
13751SOL    HW142694   2.865   6.206   4.346 -0.5714 -1.1509 -0.4025
13751SOL    HW242695   2.926   6.137   4.226 -0.3066 -0.0086 -0.9354
13752SOL     OW42696   5.137   5.919   9.192 -0.2962  0.7592  0.1889
13752SOL    HW142697   5.065   5.858   9.210  0.3158 -0.6324 -1.6997
13752SOL    HW242698   5.210   5.887   9.245 -0.2439  0.3883 -0.1031
13753SOL     OW42699   4.994   0.716   4.627 -0.1959 -0.0737  0.3978
13753SOL    HW142700   4.969   0.761   4.547 -0.4785 -1.1154 -0.1168
13753SOL    HW242701   4.916   0.668   4.653  0.0769 -0.2179  0.9668
13754SOL     OW42702   5.492   3.286  11.947  0.0921 -0.6177  0.0727
13754SOL    HW142703   5.542   3.269  12.026 -0.0961 -0.3130  0.2601
13754SOL    HW242704   5.443   3.206  11.931  1.2052 -1.2092 -0.5429
13755SOL     OW42705   7.390   7.205   5.436  0.3403  0.1554 -0.0043
13755SOL    HW142706   7.480   7.228   5.412 -0.2070  2.1372 -0.3621
13755SOL    HW242707   7.398   7.122   5.483  2.1185 -0.7513 -1.7495
13756SOL     OW42708   7.255   6.496   4.570  0.0198  0.0311  0.6996
13756SOL    HW142709   7.350   6.480   4.571  0.3007  1.1344 -1.8224
13756SOL    HW242710   7.230   6.486   4.478 -1.8715  2.0933  0.9199
13757SOL     OW42711   1.995   7.858   8.763 -0.4304  0.2393  0.6699
13757SOL    HW142712   1.963   7.853   8.853  2.2150 -0.2943  1.6908
13757SOL    HW242713   2.030   7.947   8.755  0.1155  0.0090  0.4725
13758SOL     OW42714   3.581   5.727   9.163  0.3687 -0.1179 -0.2832
13758SOL    HW142715   3.657   5.725   9.105  0.7150 -0.8814  0.1795
13758SOL    HW242716   3.527   5.799   9.130  1.0633  0.1276 -0.9032
13759SOL     OW42717   3.272   5.364  10.749 -0.1152  0.0226 -0.4327
13759SOL    HW142718   3.186   5.368  10.791 -0.1037 -1.6976 -0.1910
13759SOL    HW242719   3.294   5.456  10.732 -2.2025  0.4909 -0.9541
13760SOL     OW42720   7.636   7.699   2.126 -0.0218 -0.4286 -0.1865
13760SOL    HW142721   7.662   7.790   2.111 -0.6566 -0.4565 -1.5339
13760SOL    HW242722   7.718   7.653   2.142  0.6087 -0.1084 -2.2146
13761SOL     OW42723   5.505   2.082   8.606 -0.0589  0.6736  0.5219
13761SOL    HW142724   5.442   2.070   8.536 -0.6270  0.8152  1.0043
13761SOL    HW242725   5.568   2.146   8.571 -0.7044  1.2417  0.3718
13762SOL     OW42726   1.689   5.725   3.313  0.1289  0.0234 -0.3463
13762SOL    HW142727   1.678   5.633   3.337  0.4115  0.0876  0.0496
13762SOL    HW242728   1.783   5.734   3.297 -0.1462 -0.2001 -2.2780
13763SOL     OW42729   0.976   5.658   7.110  0.0349 -0.7178  0.5411
13763SOL    HW142730   0.926   5.586   7.149 -2.0306 -0.4322 -1.3154
13763SOL    HW242731   1.031   5.615   7.044  0.9224 -0.8455  1.3465
13764SOL     OW42732   6.963   0.497   4.544 -0.0341  0.2781 -0.0639
13764SOL    HW142733   6.947   0.572   4.602 -0.4781 -0.2308  0.4722
13764SOL    HW242734   6.908   0.427   4.579  0.5949 -0.3891 -0.3898
13765SOL     OW42735   0.672   5.322   2.648 -0.4175 -0.9193 -0.3576
13765SOL    HW142736   0.712   5.361   2.570 -0.4773 -0.4364 -0.1454
13765SOL    HW242737   0.742   5.270   2.688 -0.0052 -0.0977 -0.0005
13766SOL     OW42738   0.394   7.243  10.662  0.1192 -0.2400 -0.2167
13766SOL    HW142739   0.485   7.246  10.690  0.3409 -0.1045 -0.9504
13766SOL    HW242740   0.363   7.158  10.694  0.1485  0.2120  1.0769
13767SOL     OW42741   7.833   0.038   1.661  0.2388 -0.4877 -0.1185
13767SOL    HW142742   7.882  -0.024   1.607  1.0693  1.8399 -2.2604
13767SOL    HW242743   7.779   0.086   1.598  0.6300  1.8351  1.2072
13768SOL     OW42744   2.152   2.726  11.854 -0.3352 -0.6299  0.0170
13768SOL    HW142745   2.203   2.777  11.915 -1.4350 -0.7515  1.0684
13768SOL    HW242746   2.217   2.684  11.797  0.6346  0.5504  0.2301
13769SOL     OW42747   2.444   6.002   2.636 -0.3702 -0.1447 -0.3543
13769SOL    HW142748   2.359   5.966   2.663 -0.3641  0.4445  0.4791
13769SOL    HW242749   2.500   5.994   2.713  0.0070  0.4635 -0.5546
13770SOL     OW42750   4.723   6.706  10.213  0.5125  0.4929 -0.4090
13770SOL    HW142751   4.812   6.672  10.202  0.3211 -0.4890  0.8158
13770SOL    HW242752   4.683   6.646  10.275  0.0745  2.8639  1.7726
13771SOL     OW42753   2.047   5.629   3.513  0.5830  0.2943 -0.4616
13771SOL    HW142754   2.022   5.605   3.424  0.8914  1.7098 -0.9555
13771SOL    HW242755   1.969   5.673   3.548 -0.3854 -2.2087  0.8233
13772SOL     OW42756   0.865   2.223  11.277  0.0274 -0.1618 -0.1544
13772SOL    HW142757   0.866   2.234  11.182 -1.1463 -0.2080 -0.1938
13772SOL    HW242758   0.869   2.312  11.312  0.5352 -0.1485 -0.2396
13773SOL     OW42759   3.302   7.213   0.308  0.4713  0.2493 -0.5499
13773SOL    HW142760   3.291   7.296   0.355  1.8191  0.8137 -1.1930
13773SOL    HW242761   3.219   7.201   0.261  0.0316  0.9005  0.0375
13774SOL     OW42762   2.060   7.032   8.771 -0.1039  0.2205  0.3300
13774SOL    HW142763   2.016   7.098   8.824  0.2826  1.2162 -0.5570
13774SOL    HW242764   2.082   7.077   8.689  0.0157 -1.0508 -0.3734
13775SOL     OW42765   5.050   3.059   8.700  0.3053 -0.4351 -0.5239
13775SOL    HW142766   5.144   3.042   8.689  0.5884  0.1545  0.8035
13775SOL    HW242767   5.029   3.124   8.634  0.2675 -2.2817 -2.4459
13776SOL     OW42768   0.043   0.971   7.794  0.2208  0.0466  0.7142
13776SOL    HW142769   0.124   0.953   7.746  0.2252 -0.5609  0.9320
13776SOL    HW242770  -0.025   0.925   7.745 -0.1647  1.3317 -0.0043
13777SOL     OW42771   6.057   5.792  10.740  0.0427  0.2373 -0.3930
13777SOL    HW142772   6.063   5.712  10.793 -1.6259  0.2080 -0.1999
13777SOL    HW242773   6.021   5.762  10.657 -0.8226  0.8148 -0.2356
13778SOL     OW42774   2.704   4.126   0.448  0.0318  0.8125  0.1998
13778SOL    HW142775   2.775   4.121   0.512  0.8674 -0.2763 -0.7784
13778SOL    HW242776   2.627   4.094   0.495  0.4491  0.8193  0.9005
13779SOL     OW42777   1.671   0.830   6.112  0.0043 -0.2734  0.1874
13779SOL    HW142778   1.718   0.799   6.190  0.2292  1.2867  0.7172
13779SOL    HW242779   1.704   0.919   6.098  0.2319 -0.6556 -1.9350
13780SOL     OW42780   7.230   4.237  12.018  0.3885  0.8216 -0.1592
13780SOL    HW142781   7.299   4.302  12.024  1.0270  0.3429 -1.7871
13780SOL    HW242782   7.254   4.171  12.083 -0.6750  2.4979  2.0566
13781SOL     OW42783   6.140   7.025   9.666  0.9348 -0.5203 -0.0882
13781SOL    HW142784   6.051   7.053   9.642  0.6649  0.4913  1.8658
13781SOL    HW242785   6.197   7.094   9.633  0.8349 -0.4312 -0.0762
13782SOL     OW42786   0.573   0.547   7.232  0.2094  0.1611 -0.0515
13782SOL    HW142787   0.655   0.512   7.266  0.7889  0.5033 -1.0549
13782SOL    HW242788   0.593   0.571   7.142 -1.3838 -1.0685 -0.7754
13783SOL     OW42789   5.548   5.773  11.394 -0.4803  0.1419  0.0511
13783SOL    HW142790   5.642   5.792  11.391 -0.8535  2.2372 -0.0267
13783SOL    HW242791   5.539   5.691  11.345  1.3606 -0.4726  0.6315
13784SOL     OW42792   4.486   7.575   1.881  0.0451  0.4322  0.0433
13784SOL    HW142793   4.466   7.562   1.788 -0.1892 -1.1239  0.2853
13784SOL    HW242794   4.426   7.644   1.909  0.9720  1.8131 -1.2320
13785SOL     OW42795   6.655   7.892   7.988 -0.1792 -0.3368  0.0069
13785SOL    HW142796   6.657   7.983   8.017  1.0749 -0.7958  1.4382
13785SOL    HW242797   6.653   7.841   8.068  1.6435 -1.6176 -0.7103
13786SOL     OW42798   1.476   7.499   8.587 -0.2716  0.1630  0.3771
13786SOL    HW142799   1.457   7.434   8.654  0.9713 -0.3956  0.2142
13786SOL    HW242800   1.491   7.448   8.507 -0.4369  0.7286 -0.0233
13787SOL     OW42801   1.151   5.977   7.265 -0.2662 -0.0135  0.1004
13787SOL    HW142802   1.182   6.007   7.351 -1.2290 -0.5074  0.6408
13787SOL    HW242803   1.220   5.920   7.233 -0.5267 -0.9772  1.2116
13788SOL     OW42804   3.881   5.814   3.001  0.0836  0.6529  0.1696
13788SOL    HW142805   3.804   5.814   3.058  0.7232  2.1341  1.1011
13788SOL    HW242806   3.926   5.732   3.021 -0.9741  0.0189 -0.0045
13789SOL     OW42807   0.482   0.484   3.480 -0.0432  0.6628  0.6256
13789SOL    HW142808   0.479   0.571   3.442  2.8892  0.4046 -0.4537
13789SOL    HW242809   0.397   0.445   3.457 -1.4896  3.2277  1.3043
13790SOL     OW42810   6.444   2.269  11.550 -0.0989  0.3216 -0.2045
13790SOL    HW142811   6.386   2.344  11.546 -0.7450 -0.1558  0.0882
13790SOL    HW242812   6.500   2.278  11.473 -2.3600 -0.6512 -2.0805
13791SOL     OW42813   7.487   0.340   9.496 -0.0313  0.1625 -0.0231
13791SOL    HW142814   7.540   0.408   9.536 -0.1169  0.2651 -0.0828
13791SOL    HW242815   7.483   0.365   9.403 -0.1409  0.1269 -0.0275
13792SOL     OW42816   1.060   3.943  11.052 -0.0977  0.0227 -0.5991
13792SOL    HW142817   1.013   3.866  11.085  0.3724 -0.3609 -0.8116
13792SOL    HW242818   1.022   3.958  10.965 -2.4565  1.9878  0.6521
13793SOL     OW42819   7.111   7.319  10.042 -0.6282 -0.4448  0.5230
13793SOL    HW142820   7.103   7.372  10.121 -0.6117  0.0418  0.2048
13793SOL    HW242821   7.155   7.239  10.070 -0.6545 -0.2866  1.0121
13794SOL     OW42822   3.479   4.650   6.319  0.0562  0.5366  0.7540
13794SOL    HW142823   3.402   4.594   6.322  0.1754  0.4074  1.4869
13794SOL    HW242824   3.478   4.687   6.230 -0.0847 -0.5254  0.2952
13795SOL     OW42825   3.688   1.936  12.033 -0.4138 -0.6499  0.0202
13795SOL    HW142826   3.704   2.029  12.052  0.7374 -0.8440  0.0429
13795SOL    HW242827   3.598   1.934  12.000 -0.3042  0.5330 -0.4098
13796SOL     OW42828   7.218   6.195   9.543 -0.6657 -0.1539  0.1681
13796SOL    HW142829   7.137   6.237   9.574  0.1322  0.4019  1.5794
13796SOL    HW242830   7.264   6.265   9.497  0.3243  0.3986  1.8907
13797SOL     OW42831   6.281   4.505   6.861  0.2877 -0.3652  0.3555
13797SOL    HW142832   6.280   4.430   6.802 -0.2001 -0.2968  0.2753
13797SOL    HW242833   6.340   4.567   6.818  1.1397 -0.9161  0.7005
13798SOL     OW42834   7.941   7.378   0.219 -0.6358 -0.3365 -0.0788
13798SOL    HW142835   7.855   7.408   0.251  0.2629  1.7053  0.5867
13798SOL    HW242836   7.970   7.315   0.285 -0.5113  0.9342  1.1313
13799SOL     OW42837   5.327   0.486   2.027 -0.1228  0.0146 -0.0945
13799SOL    HW142838   5.385   0.462   2.099 -0.8658 -2.8191 -0.2910
13799SOL    HW242839   5.239   0.469   2.060 -0.5313 -0.4311 -1.3125
13800SOL     OW42840   0.481   7.519   1.049  0.0864  0.2531 -0.3349
13800SOL    HW142841   0.443   7.528   1.137 -0.2381  0.6536 -0.5126
13800SOL    HW242842   0.515   7.429   1.047  0.5758  0.4059  0.3848
13801SOL     OW42843   5.411   3.636   3.145  0.4546 -0.4775 -0.6008
13801SOL    HW142844   5.457   3.707   3.190 -1.3389  0.2341  0.2296
13801SOL    HW242845   5.319   3.650   3.168  0.1213 -3.6993  0.4795
13802SOL     OW42846   1.590   5.826   0.141  0.3890  0.2794  0.2321
13802SOL    HW142847   1.525   5.828   0.211 -0.8524  2.1229 -0.8827
13802SOL    HW242848   1.567   5.899   0.084  0.9152 -1.5020 -2.4940
13803SOL     OW42849   2.155   5.881   1.064  0.1609  0.6096 -0.5959
13803SOL    HW142850   2.061   5.875   1.080  0.6817 -1.3999  2.7177
13803SOL    HW242851   2.191   5.799   1.100  3.2245  1.4377 -1.4265
13804SOL     OW42852   5.448   3.736  10.892  0.0855  0.1427 -0.5522
13804SOL    HW142853   5.403   3.817  10.916  1.4636  0.3275  1.7136
13804SOL    HW242854   5.394   3.698  10.823 -1.7474  1.9255 -0.1959
13805SOL     OW42855   5.922   2.829   8.975  0.3694 -0.4899 -0.0519
13805SOL    HW142856   5.980   2.798   9.045  0.8111 -2.6539 -1.2827
13805SOL    HW242857   5.926   2.761   8.908 -1.8733  0.3711 -1.1849
13806SOL     OW42858   1.180   7.375   7.222  0.0995 -0.2099 -0.9367
13806SOL    HW142859   1.170   7.465   7.254 -0.0926 -1.0987  1.7188
13806SOL    HW242860   1.227   7.384   7.139  1.7374  2.2327  0.1628
13807SOL     OW42861   4.355   6.840   2.854  0.0332  0.4544 -0.0362
13807SOL    HW142862   4.275   6.891   2.866  0.1144  0.4654  0.4607
13807SOL    HW242863   4.415   6.873   2.921  0.7926  1.1232 -1.0221
13808SOL     OW42864   5.221   3.529   9.786 -0.5087 -0.2215  0.4165
13808SOL    HW142865   5.154   3.514   9.719 -1.9169 -0.5839  1.8575
13808SOL    HW242866   5.296   3.565   9.737 -1.2646 -1.0308 -1.4223
13809SOL     OW42867   6.750   2.691   7.723 -0.3545 -0.2903  0.0698
13809SOL    HW142868   6.781   2.628   7.658  0.8484  0.7693 -0.4267
13809SOL    HW242869   6.657   2.671   7.733  0.1313 -2.6375  0.5267
13810SOL     OW42870   5.388   7.247   3.068  0.0493 -0.2093  0.8632
13810SOL    HW142871   5.331   7.214   2.999  1.3307 -2.3903  0.7600
13810SOL    HW242872   5.340   7.229   3.149 -1.2172  1.8729  0.6653
13811SOL     OW42873   3.696   6.296   2.521  0.3364 -0.0602 -0.0673
13811SOL    HW142874   3.612   6.275   2.481  0.4029  1.9249 -1.3993
13811SOL    HW242875   3.688   6.388   2.547  1.8538 -0.0343  0.4149
13812SOL     OW42876   5.273   6.487   9.811 -0.5008 -0.1553  0.2735
13812SOL    HW142877   5.261   6.576   9.844 -0.1821 -0.0549  0.1190
13812SOL    HW242878   5.289   6.434   9.890  0.9351  0.1949  0.2329
13813SOL     OW42879   4.952   4.522   2.794 -0.6320  0.6836 -0.1077
13813SOL    HW142880   4.962   4.610   2.831  2.4065  0.4800 -0.1878
13813SOL    HW242881   4.939   4.466   2.870  1.4195  0.7883  0.3916
13814SOL     OW42882   7.286   5.291   1.347 -0.2243 -0.1534  0.1831
13814SOL    HW142883   7.312   5.207   1.386  2.2960 -0.0523 -1.0791
13814SOL    HW242884   7.289   5.275   1.252 -2.0064  0.7639 -0.0738
13815SOL     OW42885   1.113   7.219   9.464 -0.3849 -0.6086  0.7007
13815SOL    HW142886   1.179   7.212   9.534 -0.3949 -0.7122  0.7008
13815SOL    HW242887   1.036   7.175   9.500 -0.8256  0.4909  1.1456
13816SOL     OW42888   5.897   5.705  11.721  0.5875 -0.4145 -1.0225
13816SOL    HW142889   5.849   5.785  11.742  2.8543  0.5277  1.2082
13816SOL    HW242890   5.879   5.646  11.794  2.6785 -0.0138 -0.0969
13817SOL     OW42891   2.196   5.015  10.217 -0.5574  0.2316  0.0579
13817SOL    HW142892   2.281   5.051  10.245  0.1883 -0.9945 -0.5252
13817SOL    HW242893   2.215   4.923  10.199 -2.5219 -0.6689  2.1577
13818SOL     OW42894   6.169   3.151   7.484 -0.0481 -0.3166 -0.3228
13818SOL    HW142895   6.116   3.076   7.512  1.1444 -0.7930  0.8100
13818SOL    HW242896   6.238   3.112   7.430 -1.2314  0.3842 -2.4542
13819SOL     OW42897   5.352   5.606   2.782 -0.4957 -0.3886 -0.1027
13819SOL    HW142898   5.327   5.581   2.871 -0.6213  0.2596  0.0513
13819SOL    HW242899   5.443   5.578   2.773  0.0349  0.9689  0.7929
13820SOL     OW42900   2.424   4.306   8.800  0.2157  0.2176  0.3065
13820SOL    HW142901   2.455   4.397   8.805 -0.2576  0.3349  1.2175
13820SOL    HW242902   2.420   4.288   8.706 -0.3450  1.3640  0.0931
13821SOL     OW42903   0.132   0.997  11.996  0.0476 -0.5833  0.0210
13821SOL    HW142904   0.049   0.972  11.956 -0.9695  2.0343  0.2902
13821SOL    HW242905   0.147   0.931  12.063 -2.8581 -0.1025  1.2873
13822SOL     OW42906   1.068   2.472   2.433 -1.3635  0.4702 -0.0074
13822SOL    HW142907   0.976   2.499   2.429 -0.9800  1.8300 -0.1648
13822SOL    HW242908   1.105   2.502   2.350 -0.6856  0.3237  0.2345
13823SOL     OW42909   1.615   1.360   3.665 -0.4307 -0.4634  0.3755
13823SOL    HW142910   1.532   1.384   3.706 -0.3164 -0.6307  0.7067
13823SOL    HW242911   1.619   1.265   3.673 -0.6069 -0.5460 -0.4110
13824SOL     OW42912   4.808   5.732   3.595  0.0633  0.1244 -0.6110
13824SOL    HW142913   4.718   5.763   3.605  0.3443  0.4674  1.1846
13824SOL    HW242914   4.861   5.798   3.640  1.0581 -0.8894 -0.2587
13825SOL     OW42915   4.337   3.039   7.845 -0.0948  0.3719  0.0033
13825SOL    HW142916   4.296   3.114   7.803 -0.4414  0.9289  1.2665
13825SOL    HW242917   4.348   3.066   7.936 -0.5778 -1.2336  0.5820
13826SOL     OW42918   2.322   6.418  11.886  0.3436 -0.1604  0.7296
13826SOL    HW142919   2.394   6.470  11.923  0.3024  0.0706  0.4965
13826SOL    HW242920   2.321   6.338  11.937  0.3727  0.0950  1.1369
13827SOL     OW42921   3.937   0.382   0.734 -0.6593 -1.0091  0.0392
13827SOL    HW142922   3.880   0.440   0.784 -0.9241 -1.9296  0.8487
13827SOL    HW242923   3.912   0.396   0.643 -0.4216  0.4342  0.1719
13828SOL     OW42924   5.250   0.581   3.345  0.2488 -0.3824 -0.2035
13828SOL    HW142925   5.261   0.511   3.410 -1.7173 -1.4325 -0.9119
13828SOL    HW242926   5.328   0.576   3.290  0.9297 -0.8696  0.7708
13829SOL     OW42927   5.063   0.136   9.763 -0.6397  0.6698 -0.5338
13829SOL    HW142928   5.127   0.071   9.733 -0.2234  0.4515  0.7559
13829SOL    HW242929   5.068   0.206   9.697 -2.0505 -1.1179 -2.6781
13830SOL     OW42930   1.273   5.217   1.518  0.6049  0.4238  0.3342
13830SOL    HW142931   1.244   5.302   1.485  1.3088 -0.0070 -1.5127
13830SOL    HW242932   1.327   5.237   1.594  0.5593  1.6016  0.0658
13831SOL     OW42933   7.062   4.954   6.770 -0.3532  0.8212  0.2975
13831SOL    HW142934   7.025   4.909   6.694  0.8047  1.0156 -0.4104
13831SOL    HW242935   6.990   4.959   6.833 -1.2577  0.4051 -0.6788
13832SOL     OW42936   4.417   2.472   6.943 -0.0406 -0.0709  0.3517
13832SOL    HW142937   4.378   2.559   6.937 -0.6813 -0.4252 -0.9879
13832SOL    HW242938   4.349   2.417   6.981 -0.5888 -0.5148 -1.2174
13833SOL     OW42939   6.882   1.757  11.759 -0.2859  0.6416  0.3804
13833SOL    HW142940   6.802   1.707  11.740 -0.1798 -0.0189  1.5318
13833SOL    HW242941   6.953   1.694  11.747 -0.0845  0.7319  1.0549
13834SOL     OW42942   4.560   5.163   2.156 -0.2993  0.3321 -0.3352
13834SOL    HW142943   4.629   5.229   2.157 -0.9406  1.0380 -1.1016
13834SOL    HW242944   4.481   5.211   2.132 -1.3343 -0.2349  1.6778
13835SOL     OW42945   0.497   2.384  11.631 -0.1472 -0.5040  0.5266
13835SOL    HW142946   0.453   2.300  11.633  1.4465 -1.4744 -1.4756
13835SOL    HW242947   0.590   2.362  11.630  0.3272  1.3202  0.7812
13836SOL     OW42948   3.579   0.175   0.132  0.3802 -0.0770 -0.5401
13836SOL    HW142949   3.562   0.130   0.049 -0.9590 -1.1523  0.2673
13836SOL    HW242950   3.573   0.268   0.111 -2.8665 -0.3261 -1.1336
13837SOL     OW42951   2.887   1.060  10.604 -0.3019 -0.2240  0.1073
13837SOL    HW142952   2.858   1.147  10.575 -1.4366 -0.6104  0.0219
13837SOL    HW242953   2.881   1.005  10.526  3.1849  0.1788 -0.6270
13838SOL     OW42954   1.360   5.373   4.428 -0.3560 -0.3095  0.1602
13838SOL    HW142955   1.452   5.388   4.407 -0.1887  0.3662  1.3051
13838SOL    HW242956   1.362   5.302   4.492 -0.5968 -0.0470  0.4600
13839SOL     OW42957   0.941   3.454   1.112  0.1054 -0.0843  0.4954
13839SOL    HW142958   1.010   3.469   1.176  0.8239  0.3067 -0.3572
13839SOL    HW242959   0.873   3.518   1.135  1.1774  1.3969 -0.2856
13840SOL     OW42960   5.028   4.800   6.124 -0.2429 -0.0348 -0.3264
13840SOL    HW142961   4.998   4.798   6.215 -4.8827  0.8925 -1.5759
13840SOL    HW242962   5.028   4.709   6.096  0.3558 -0.2431  0.3238
13841SOL     OW42963   7.261   0.824   1.381  0.4411  0.4460  0.3528
13841SOL    HW142964   7.272   0.885   1.308 -1.2531 -0.1702 -0.4843
13841SOL    HW242965   7.239   0.879   1.456  0.8367  0.9980  0.0622
13842SOL     OW42966   0.424   7.889   3.220  0.0126 -0.0184 -0.4093
13842SOL    HW142967   0.372   7.853   3.291 -2.4095 -0.5967 -2.3346
13842SOL    HW242968   0.402   7.982   3.218  2.7380  0.7809  1.6589
13843SOL     OW42969   4.895   7.765   0.939  0.4635  0.2016 -0.0757
13843SOL    HW142970   4.881   7.671   0.940 -0.7972  0.3195 -2.0200
13843SOL    HW242971   4.925   7.784   0.850  1.2474  1.5851  0.4513
13844SOL     OW42972   4.047   6.180   5.474  0.5997 -0.6043 -0.3750
13844SOL    HW142973   4.036   6.252   5.412  0.6874 -2.0971 -2.2157
13844SOL    HW242974   4.136   6.148   5.458  1.6208  0.5612  2.3637
13845SOL     OW42975   3.944   2.808   0.647 -0.0779  0.0585  0.1694
13845SOL    HW142976   3.899   2.891   0.634  0.7110  0.4007 -0.5159
13845SOL    HW242977   4.032   2.833   0.675 -0.2444 -0.5842  1.3127
13846SOL     OW42978   7.259   0.993  10.158  0.1521 -0.1611 -0.0421
13846SOL    HW142979   7.232   1.047  10.084  0.9508  0.2410 -0.0479
13846SOL    HW242980   7.205   0.913  10.150  1.5510 -0.9807 -2.1686
13847SOL     OW42981   7.527   6.694   3.290  0.4117  0.0837  0.4263
13847SOL    HW142982   7.435   6.672   3.295  0.6556 -0.9201  0.6953
13847SOL    HW242983   7.563   6.634   3.224  0.7428  0.9217 -0.1730
13848SOL     OW42984   7.716   7.347   8.505 -0.3349 -0.1603 -0.3343
13848SOL    HW142985   7.683   7.432   8.475  0.8931  0.7684  0.8121
13848SOL    HW242986   7.811   7.360   8.512  0.0004 -1.9772 -1.1826
13849SOL     OW42987   6.258   1.356   5.346 -0.1362  0.2930 -0.1987
13849SOL    HW142988   6.341   1.338   5.302  0.3453 -1.2641  1.2692
13849SOL    HW242989   6.193   1.355   5.275  1.2212  3.4268 -1.6886
13850SOL     OW42990   1.019   0.501   2.730 -0.0305  0.3685  0.3004
13850SOL    HW142991   1.014   0.448   2.809 -0.5525  0.5338  0.3793
13850SOL    HW242992   0.991   0.589   2.757 -2.1768 -0.0170 -0.4696
13851SOL     OW42993   3.249   5.831   3.163  0.4538 -0.0468  0.1013
13851SOL    HW142994   3.329   5.813   3.212 -0.3977 -1.1672  1.1406
13851SOL    HW242995   3.182   5.845   3.231 -0.3229  0.3971 -0.7407
13852SOL     OW42996   1.878   4.180   4.683  0.4496 -0.8333  0.0527
13852SOL    HW142997   1.787   4.162   4.659 -0.0214 -0.6164  1.6003
13852SOL    HW242998   1.924   4.098   4.663 -0.0989 -0.9974 -0.5942
13853SOL     OW42999   7.753   2.600   5.579 -0.6431  0.7934  0.0791
13853SOL    HW143000   7.688   2.628   5.514 -0.0749 -1.0258 -1.3479
13853SOL    HW243001   7.825   2.565   5.527 -0.7757 -2.1019  1.6550
13854SOL     OW43002   1.880   3.338   5.011  0.5205  0.2152  0.3293
13854SOL    HW143003   1.898   3.328   4.917  2.2260 -1.8058  0.7842
13854SOL    HW243004   1.928   3.416   5.037  0.3972  0.5394 -0.3901
13855SOL     OW43005   7.257   5.251   4.510  0.2693 -0.9700  0.3956
13855SOL    HW143006   7.282   5.294   4.592 -1.9057 -0.5688  0.9167
13855SOL    HW243007   7.258   5.322   4.446 -0.6637 -0.6776  0.6817
13856SOL     OW43008   3.774   0.920  10.306 -0.0760  0.1577  0.5829
13856SOL    HW143009   3.743   1.009  10.294 -0.2503 -0.0476 -0.5540
13856SOL    HW243010   3.740   0.894  10.392 -1.0668  0.7466  0.3760
13857SOL     OW43011   5.935   3.278  12.466  0.1173  0.5570  0.4545
13857SOL    HW143012   5.959   3.236  12.383  1.4941  1.7017  0.2364
13857SOL    HW243013   6.007   3.338  12.484 -0.1794  0.3872  2.4667
13858SOL     OW43014   1.827   3.957   1.592 -0.2263  0.1634  0.6609
13858SOL    HW143015   1.789   3.944   1.505 -0.6261  1.8428  0.5503
13858SOL    HW243016   1.754   3.944   1.652  0.1958 -1.6762  0.8338
13859SOL     OW43017   6.403   5.582   2.576  0.1631 -0.5290  0.3472
13859SOL    HW143018   6.435   5.672   2.564  2.7430 -1.4454 -0.3068
13859SOL    HW243019   6.380   5.552   2.488  0.8874 -1.0186  0.3145
13860SOL     OW43020   6.171   2.908   3.463  0.4135  0.0660 -0.4213
13860SOL    HW143021   6.169   3.003   3.452 -0.1770  0.1028 -0.0215
13860SOL    HW243022   6.258   2.883   3.432  1.0530  0.8786  0.6551
13861SOL     OW43023   0.577   1.516  10.919  0.1575 -0.2530 -0.3208
13861SOL    HW143024   0.513   1.501  10.849 -0.3463  2.9365 -0.7008
13861SOL    HW243025   0.523   1.542  10.995  0.8347 -1.4716  0.6129
13862SOL     OW43026   6.978   7.569   6.744 -0.2067  0.0391 -0.0030
13862SOL    HW143027   6.951   7.633   6.678 -1.2123  0.3048  0.6322
13862SOL    HW243028   7.072   7.558   6.730 -0.3810  0.1442 -1.4194
13863SOL     OW43029   4.820   5.775  12.302  0.1047  0.0929  0.7571
13863SOL    HW143030   4.852   5.844  12.243  1.2140 -0.1523  1.0716
13863SOL    HW243031   4.777   5.823  12.373 -0.2197  0.4161  0.3532
13864SOL     OW43032   1.076   0.561   3.626 -0.6168 -0.1423 -0.0454
13864SOL    HW143033   1.051   0.626   3.561 -1.9016 -1.1254 -0.5935
13864SOL    HW243034   1.083   0.610   3.708 -0.5923  0.8334 -0.6142
13865SOL     OW43035   7.359   3.981   5.994 -0.0879  0.3152  0.0702
13865SOL    HW143036   7.372   3.894   5.957  1.4562  1.0292 -1.1655
13865SOL    HW243037   7.426   3.989   6.062  0.0914  0.7097 -0.1508
13866SOL     OW43038   3.809   2.374  10.109 -0.1739 -0.8107  0.3487
13866SOL    HW143039   3.844   2.299  10.062  0.3560  1.1121 -2.6675
13866SOL    HW243040   3.722   2.388  10.070 -0.1485  0.2748  0.6358
13867SOL     OW43041   0.435   7.338   5.544 -0.1965 -0.0329  0.0617
13867SOL    HW143042   0.348   7.357   5.509 -0.1903  0.3164  0.2384
13867SOL    HW243043   0.466   7.421   5.580 -0.0816 -0.3128  0.6301
13868SOL     OW43044   7.688   2.139   6.465  0.0805  0.1929  0.0688
13868SOL    HW143045   7.714   2.224   6.501  1.2128  0.2160 -0.7696
13868SOL    HW243046   7.765   2.108   6.418  0.2243 -2.0306  1.6448
13869SOL     OW43047   1.535   0.777   0.444 -0.3920 -0.3268  0.0214
13869SOL    HW143048   1.499   0.705   0.393 -0.3548  0.3286 -0.9494
13869SOL    HW243049   1.622   0.747   0.470  0.9485  0.5097 -3.0383
13870SOL     OW43050   0.937   6.013  11.333 -0.2291 -0.2522  0.8887
13870SOL    HW143051   0.953   6.006  11.239  1.8882 -0.2568  1.2063
13870SOL    HW243052   0.973   5.933  11.370 -3.2711 -1.4622  1.5437
13871SOL     OW43053   7.972   1.834   1.963 -0.2276 -0.2671  0.6312
13871SOL    HW143054   7.918   1.913   1.959  1.5568  1.0792  1.5887
13871SOL    HW243055   7.995   1.816   1.872 -3.0402 -1.5085  0.0615
13872SOL     OW43056   2.041   1.258  11.768 -0.1994 -0.5005  0.2220
13872SOL    HW143057   2.092   1.177  11.759 -1.6285 -1.2989 -1.2023
13872SOL    HW243058   1.975   1.252  11.699 -0.2174  1.9990 -0.0421
13873SOL     OW43059   7.210   5.708   9.928 -0.0746 -0.3471 -0.3143
13873SOL    HW143060   7.262   5.658   9.990 -0.0695  0.5545  0.4382
13873SOL    HW243061   7.270   5.728   9.856  0.8372  1.2028  0.8283
13874SOL     OW43062   2.651   5.963   1.529  0.4299  0.2055 -0.1689
13874SOL    HW143063   2.692   5.955   1.444  0.7143  0.3263 -0.0434
13874SOL    HW243064   2.558   5.975   1.510  0.6119  1.1578 -0.4949
13875SOL     OW43065   1.647   4.386  11.061  0.2371  0.0447 -0.4375
13875SOL    HW143066   1.611   4.448  11.125  1.0217 -1.0591  1.1225
13875SOL    HW243067   1.653   4.303  11.108  2.2557 -0.4627 -1.4667
13876SOL     OW43068   1.756   0.620   2.799 -0.5000  1.0035  0.3319
13876SOL    HW143069   1.731   0.607   2.708  0.5671  1.1966  0.0078
13876SOL    HW243070   1.777   0.532   2.832  0.3842  1.0890  0.0106
13877SOL     OW43071   3.466   7.252   0.060  0.4421  0.5140 -0.4513
13877SOL    HW143072   3.482   7.158   0.058  0.2643  0.4567  0.2645
13877SOL    HW243073   3.394   7.262   0.124  1.0033  1.2047  0.0876
13878SOL     OW43074   5.623   6.640   2.423 -0.2771  0.3860  0.2675
13878SOL    HW143075   5.643   6.591   2.503  0.3842 -0.4437 -0.3863
13878SOL    HW243076   5.590   6.724   2.454 -0.5309 -0.1122  1.4183
13879SOL     OW43077   1.933   4.623   1.864 -0.2909  0.1395 -0.5492
13879SOL    HW143078   1.884   4.635   1.783  0.0725 -1.4722 -1.0499
13879SOL    HW243079   2.023   4.607   1.835  0.5863  2.8978  0.3370
13880SOL     OW43080   2.262   6.242   5.742  0.3507  0.0448 -0.3426
13880SOL    HW143081   2.251   6.337   5.740  1.0469  0.1421  0.1238
13880SOL    HW243082   2.297   6.221   5.655 -0.9629  0.0506 -0.8869
13881SOL     OW43083   5.912   7.417  10.488  0.1856 -0.1218  0.2226
13881SOL    HW143084   5.879   7.346  10.434 -0.7542 -0.5912  1.3675
13881SOL    HW243085   5.907   7.383  10.578  0.1349  1.2156  0.7525
13882SOL     OW43086   3.943   6.565   1.009  0.1868  0.2987  0.4224
13882SOL    HW143087   3.982   6.555   1.096 -1.0434 -0.3714  0.9373
13882SOL    HW243088   3.992   6.505   0.953  1.3256  1.1113  0.5122
13883SOL     OW43089   3.751   5.318   4.328 -0.5117  0.2529  0.0713
13883SOL    HW143090   3.800   5.361   4.258  0.2574  0.9887  1.0280
13883SOL    HW243091   3.807   5.245   4.354  0.3630  1.3737  1.4885
13884SOL     OW43092   5.710   2.729  10.273  0.1522 -0.2419  0.0379
13884SOL    HW143093   5.779   2.782  10.314 -0.1130  0.4705 -0.4127
13884SOL    HW243094   5.630   2.781  10.285 -0.5481 -1.5757  1.5757
13885SOL     OW43095   4.171   5.989   4.359  0.0767 -0.2630 -0.8073
13885SOL    HW143096   4.260   5.956   4.359 -0.1711 -0.9412 -0.7465
13885SOL    HW243097   4.144   5.985   4.267 -0.6072 -2.0529 -0.5625
13886SOL     OW43098   0.733   7.408   6.062  0.2513 -0.0545 -0.0664
13886SOL    HW143099   0.794   7.408   5.989 -1.2648  0.1572 -1.3969
13886SOL    HW243100   0.784   7.442   6.136  1.5944  0.5569 -1.2215
13887SOL     OW43101   0.441   6.387  12.441 -0.0586  0.1345 -0.3608
13887SOL    HW143102   0.486   6.303  12.453 -0.4759  0.1212  1.4174
13887SOL    HW243103   0.510   6.448  12.416  0.5384 -0.3913 -0.0398
13888SOL     OW43104   7.549   0.167   2.301  0.6048 -0.0185  0.2996
13888SOL    HW143105   7.611   0.122   2.244  0.1595  0.4771 -0.6054
13888SOL    HW243106   7.601   0.196   2.375  1.1042 -1.1002  0.4021
13889SOL     OW43107   4.449   7.524   0.650 -0.1840  0.8397  0.0170
13889SOL    HW143108   4.396   7.564   0.719  0.2081  1.3656  0.0166
13889SOL    HW243109   4.442   7.584   0.576 -0.2749  0.4813 -0.2657
13890SOL     OW43110   3.263   6.168   3.660 -0.7038  0.1314  0.3683
13890SOL    HW143111   3.184   6.218   3.639 -1.5555 -1.3588 -0.1901
13890SOL    HW243112   3.314   6.168   3.579 -2.2430 -2.5153 -0.7372
13891SOL     OW43113   7.271   0.677   4.647  0.4505  0.4166 -0.6869
13891SOL    HW143114   7.307   0.601   4.601 -0.6159  0.0561 -0.9629
13891SOL    HW243115   7.329   0.690   4.722  0.3287 -1.0451 -0.3119
13892SOL     OW43116   1.864   1.011   7.590  0.1395  0.3681  0.0053
13892SOL    HW143117   1.865   1.089   7.534 -0.3919  0.3903  0.0261
13892SOL    HW243118   1.872   1.045   7.679 -1.0306  0.4768  0.0897
13893SOL     OW43119   3.762   0.109   5.987  0.0100  0.0997  0.3485
13893SOL    HW143120   3.815   0.187   6.006 -0.4748  0.1492  1.5767
13893SOL    HW243121   3.780   0.050   6.060 -1.6930  0.1590  0.8581
13894SOL     OW43122   2.649   6.937   2.474 -0.6519 -0.1610  0.1288
13894SOL    HW143123   2.687   6.900   2.394 -0.6546  0.3154 -0.1033
13894SOL    HW243124   2.704   7.014   2.492 -1.2545  0.3066  0.0148
13895SOL     OW43125   6.132   1.081   8.953 -0.8639 -0.4017  0.1719
13895SOL    HW143126   6.142   1.025   9.029 -0.1707  0.0598  0.4324
13895SOL    HW243127   6.120   1.169   8.989 -0.6308 -0.1948 -0.2425
13896SOL     OW43128   2.730   4.279   3.862 -0.4691  0.2002 -0.1677
13896SOL    HW143129   2.690   4.324   3.936 -0.4734  0.4265 -0.3066
13896SOL    HW243130   2.693   4.191   3.864  1.5958 -0.7376  1.7961
13897SOL     OW43131   7.572   7.177   2.493  0.1646  0.7036 -0.2428
13897SOL    HW143132   7.646   7.230   2.462 -0.4633  0.8441 -1.5569
13897SOL    HW243133   7.500   7.240   2.502 -0.3197  0.2422 -0.8623
13898SOL     OW43134   7.692   1.986   8.051 -0.4433 -0.0780  0.3739
13898SOL    HW143135   7.654   2.072   8.034  1.0729  0.5823  0.1178
13898SOL    HW243136   7.768   2.004   8.108  0.9512 -1.0027 -1.0986
13899SOL     OW43137   3.028   6.823  11.493  0.4938 -0.2280  0.7442
13899SOL    HW143138   3.106   6.786  11.535  0.1796 -2.9845 -0.8474
13899SOL    HW243139   2.958   6.760  11.512 -0.5398  0.4385 -0.6490
13900SOL     OW43140   1.825   5.499   9.956 -0.4527 -0.1095 -0.1484
13900SOL    HW143141   1.775   5.557   9.898  0.8765 -0.6792 -1.9536
13900SOL    HW243142   1.761   5.436   9.988 -1.5979  1.3350  0.5699
13901SOL     OW43143   2.737   2.472   7.710  0.0077  0.2129  0.3203
13901SOL    HW143144   2.745   2.376   7.706 -2.4675 -0.0802  0.5943
13901SOL    HW243145   2.694   2.495   7.628  0.5300  1.0930  0.2906
13902SOL     OW43146   0.924   4.576   8.374 -0.5482  0.8798  0.3226
13902SOL    HW143147   0.866   4.525   8.431  0.9419 -0.3360  0.7986
13902SOL    HW243148   0.917   4.533   8.289  1.0882 -0.5060  0.8406
13903SOL     OW43149   0.428   4.751   9.102  0.0313  0.2674  0.4833
13903SOL    HW143150   0.383   4.684   9.154  0.3504  0.4483  1.0049
13903SOL    HW243151   0.496   4.785   9.161 -1.4235  2.5009  1.0078
13904SOL     OW43152   3.032   6.702   6.482  0.2158  0.2377 -0.7480
13904SOL    HW143153   3.100   6.723   6.546  1.0854  1.2754 -1.9515
13904SOL    HW243154   2.997   6.617   6.509  0.2513  0.8446  1.3256
13905SOL     OW43155   3.095   6.362   4.954  0.0606 -0.4410 -0.4479
13905SOL    HW143156   3.005   6.395   4.959 -0.5115 -2.0985  2.8607
13905SOL    HW243157   3.092   6.292   4.889 -0.9769 -0.2966 -0.5688
13906SOL     OW43158   3.014   1.033  10.273  0.3279 -0.1220  0.5421
13906SOL    HW143159   2.929   1.062  10.240 -0.2452 -1.8682  0.3725
13906SOL    HW243160   3.078   1.071  10.213 -0.4787 -0.4609 -0.5536
13907SOL     OW43161   2.674   2.276  10.901  0.2451 -0.6157 -0.2360
13907SOL    HW143162   2.724   2.356  10.884  0.7567 -0.8152  0.2899
13907SOL    HW243163   2.716   2.210  10.846  0.5229 -0.7698  0.1597
13908SOL     OW43164   7.703   5.313  11.918  0.5201 -0.4167  0.2328
13908SOL    HW143165   7.673   5.285  12.004  0.1820 -0.1851  0.1952
13908SOL    HW243166   7.637   5.279  11.858 -0.6161  1.5130  0.2990
13909SOL     OW43167   3.476   2.592  10.324  0.0247  1.4137  0.5728
13909SOL    HW143168   3.556   2.554  10.360  0.6673  2.7494  0.6287
13909SOL    HW243169   3.408   2.527  10.341  0.9122  0.6841  1.4106
13910SOL     OW43170   4.389   7.510   8.008  0.6420  0.4690  0.7594
13910SOL    HW143171   4.294   7.516   8.017  0.2762 -0.7164 -1.4654
13910SOL    HW243172   4.414   7.588   7.959  0.8063  0.6580  1.1354
13911SOL     OW43173   2.247   3.946   6.305  0.2137  0.4535 -0.3664
13911SOL    HW143174   2.215   3.936   6.215 -0.5861  1.4373 -0.2089
13911SOL    HW243175   2.319   3.884   6.311  0.9715  1.0983 -2.0195
13912SOL     OW43176   2.238   5.567   0.128 -0.3903  0.1721 -0.4930
13912SOL    HW143177   2.158   5.522   0.156  0.2007 -0.7178 -0.2165
13912SOL    HW243178   2.274   5.512   0.060 -0.7085  1.2671 -1.5904
13913SOL     OW43179   6.018   4.413   0.718  0.0911 -0.3881  0.4950
13913SOL    HW143180   5.928   4.438   0.697  0.9707  1.9202 -0.9126
13913SOL    HW243181   6.053   4.489   0.765  1.9329 -0.2582 -0.9950
13914SOL     OW43182   0.626   0.170   6.433  0.0140  0.6958 -0.3155
13914SOL    HW143183   0.582   0.254   6.418  0.0296  0.5004 -1.5879
13914SOL    HW243184   0.682   0.159   6.356  0.3128 -0.2951  0.0388
13915SOL     OW43185   7.655   6.584   4.052 -0.4289  0.5995 -0.4377
13915SOL    HW143186   7.700   6.510   4.012 -1.1573  0.4093 -0.9239
13915SOL    HW243187   7.648   6.648   3.981 -0.8742  0.6480 -0.3483
13916SOL     OW43188   7.812   5.262   1.139  0.0925  0.1049  0.0260
13916SOL    HW143189   7.800   5.356   1.130  0.6218  0.1070 -0.7196
13916SOL    HW243190   7.885   5.253   1.201  3.0566  0.3362 -3.1097
13917SOL     OW43191   3.308   1.808   3.485  0.0073  0.0196  0.2574
13917SOL    HW143192   3.224   1.846   3.510 -0.4878  0.2213 -1.5598
13917SOL    HW243193   3.361   1.883   3.459  0.7297 -0.1222  1.2456
13918SOL     OW43194   0.361   7.701  10.658  0.0559  0.1892  0.2897
13918SOL    HW143195   0.333   7.686  10.568  1.0876 -0.4508  0.0579
13918SOL    HW243196   0.381   7.795  10.661  1.0853  0.0150 -0.4817
13919SOL     OW43197   3.178   2.373   0.928 -0.3651 -0.9193 -0.1867
13919SOL    HW143198   3.205   2.456   0.968 -1.2080  0.4616 -2.2776
13919SOL    HW243199   3.242   2.358   0.859 -0.5304 -1.7660 -0.1698
13920SOL     OW43200   6.610   1.328  11.263  0.6129  0.2670  0.1495
13920SOL    HW143201   6.684   1.282  11.224  1.5967  0.6550  1.4699
13920SOL    HW243202   6.533   1.295  11.217  1.6285  0.0424 -1.4341
13921SOL     OW43203   4.705   0.671   8.622  0.7124  0.3935 -0.2196
13921SOL    HW143204   4.650   0.600   8.587 -0.6209  0.7394  1.0712
13921SOL    HW243205   4.793   0.634   8.625  0.7635  0.0434 -3.0219
13922SOL     OW43206   5.226   0.083  11.139 -0.0534 -0.2289  0.6780
13922SOL    HW143207   5.213   0.096  11.233 -0.2082  1.7751  0.4182
13922SOL    HW243208   5.292   0.148  11.115  2.6284 -2.9758 -0.0393
13923SOL     OW43209   2.753   3.481   3.208 -0.2596 -0.1071  0.4985
13923SOL    HW143210   2.823   3.428   3.247  0.0068 -0.6995 -0.7480
13923SOL    HW243211   2.711   3.523   3.283  0.2735 -1.1673  1.4271
13924SOL     OW43212   7.402   1.450   9.440 -0.2946  0.3685  0.2957
13924SOL    HW143213   7.354   1.510   9.383 -0.1936 -0.9918 -1.3055
13924SOL    HW243214   7.358   1.366   9.428  1.2105 -0.4566  0.3740
13925SOL     OW43215   7.704   6.841   4.424  0.2283  0.0815  0.7359
13925SOL    HW143216   7.727   6.759   4.381  0.2227  0.1555  0.5908
13925SOL    HW243217   7.645   6.815   4.496 -3.6475  0.3046 -2.0429
13926SOL     OW43218   0.420   2.061   6.545  0.4704 -0.2863 -0.7069
13926SOL    HW143219   0.506   2.102   6.536  0.3370  0.9102  2.3681
13926SOL    HW243220   0.358   2.131   6.523  0.2798  0.1038  0.9793
13927SOL     OW43221   2.807   0.425   5.790  0.0603  0.2823  0.4135
13927SOL    HW143222   2.819   0.520   5.793  1.3723  0.0989  1.1677
13927SOL    HW243223   2.881   0.393   5.739  0.8836 -0.5226  2.0368
13928SOL     OW43224   1.506   1.078  11.022 -0.7398 -0.4127 -0.1897
13928SOL    HW143225   1.570   1.012  10.994  0.1631 -0.7348  2.3964
13928SOL    HW243226   1.514   1.148  10.957 -0.1053 -1.8501 -1.7256
13929SOL     OW43227   4.710   3.154   3.197 -0.2948  0.4269  0.5402
13929SOL    HW143228   4.645   3.200   3.251 -0.1858 -1.0308  2.0154
13929SOL    HW243229   4.658   3.100   3.138 -0.4267  0.2447  0.8215
13930SOL     OW43230   7.919   1.896   0.463  0.6658 -0.1151 -0.0673
13930SOL    HW143231   7.840   1.865   0.508 -0.1266  2.1739  0.2537
13930SOL    HW243232   7.901   1.879   0.370 -0.2679  0.4496 -0.0043
13931SOL     OW43233   5.240   3.042  12.240 -0.2180 -0.2117 -0.1022
13931SOL    HW143234   5.199   2.971  12.289 -0.7937  1.1795  1.5449
13931SOL    HW243235   5.294   2.998  12.174  0.6159 -2.1869  1.7817
13932SOL     OW43236   3.198   0.617  11.885 -0.5798 -0.5976  0.4935
13932SOL    HW143237   3.138   0.646  11.817  0.2361  0.4726  0.1980
13932SOL    HW243238   3.184   0.523  11.892 -0.2961 -0.8353 -1.5522
13933SOL     OW43239   3.549   4.374   9.352  0.1799  0.4462 -0.4568
13933SOL    HW143240   3.474   4.433   9.343 -0.5994 -0.5711 -0.8489
13933SOL    HW243241   3.510   4.289   9.373  1.0153 -0.5957 -2.7651
13934SOL     OW43242   5.002   4.732   8.431 -0.1925  0.1318 -0.0357
13934SOL    HW143243   5.029   4.657   8.378 -0.2320  0.3216 -0.3264
13934SOL    HW243244   5.085   4.774   8.456 -0.2038  0.7527 -0.9842
13935SOL     OW43245   6.322   7.247   2.515  0.4670 -0.1876  0.2915
13935SOL    HW143246   6.310   7.168   2.566 -0.2310  1.7376  3.3628
13935SOL    HW243247   6.263   7.311   2.555  2.8999  2.6335 -0.2520
13936SOL     OW43248   4.496   3.631   1.965  0.5496  0.5873  0.0738
13936SOL    HW143249   4.500   3.594   2.053 -1.2184 -1.6496 -0.6828
13936SOL    HW243250   4.578   3.604   1.924  1.1474  1.1921  0.8477
13937SOL     OW43251   1.422   2.179   3.176 -0.3243 -0.3740  0.1821
13937SOL    HW143252   1.413   2.104   3.234  3.9501 -1.0706  0.2796
13937SOL    HW243253   1.441   2.140   3.090  1.1154  0.5023  0.0626
13938SOL     OW43254   6.476   5.958   5.930  0.2946  0.1519 -0.0278
13938SOL    HW143255   6.544   5.985   5.869 -1.0432  1.7542 -0.8979
13938SOL    HW243256   6.477   6.024   5.999  0.9003 -0.9129  1.0276
13939SOL     OW43257   1.497   6.772   9.083 -0.2865 -0.2368 -0.0246
13939SOL    HW143258   1.489   6.753   9.176  1.6011 -2.6279 -0.2444
13939SOL    HW243259   1.540   6.858   9.080 -0.2052 -0.2071  1.3246
13940SOL     OW43260   1.723   7.202   2.689  0.2202 -0.0058  0.1457
13940SOL    HW143261   1.715   7.176   2.781  1.9353 -0.7309  0.1211
13940SOL    HW243262   1.785   7.140   2.651 -0.3722  0.3467 -1.4943
13941SOL     OW43263   2.461   5.508   0.980  0.0230 -0.0743  0.4948
13941SOL    HW143264   2.545   5.462   0.984 -0.0103 -0.0690  1.5634
13941SOL    HW243265   2.478   5.586   0.928  0.5831 -0.2872  0.3557
13942SOL     OW43266   2.582   2.210   7.658 -0.0780 -0.4894  0.6388
13942SOL    HW143267   2.539   2.251   7.582 -0.9090  1.3340  2.0166
13942SOL    HW243268   2.592   2.118   7.633  0.9824  0.2931 -2.2277
13943SOL     OW43269   2.406   0.438   6.133 -0.0877  0.5255  0.0358
13943SOL    HW143270   2.471   0.462   6.198 -0.5381  1.0068  0.3147
13943SOL    HW243271   2.322   0.448   6.178 -0.4813  2.0013 -0.9624
13944SOL     OW43272   3.831   5.508   7.830  0.2567 -0.7833  0.0231
13944SOL    HW143273   3.770   5.547   7.893  1.5136  1.3209  0.0256
13944SOL    HW243274   3.901   5.572   7.821  1.2357 -2.0127 -1.8656
13945SOL     OW43275   1.691   4.820   2.293  0.2561  0.0877  0.5807
13945SOL    HW143276   1.735   4.767   2.227  1.6510 -0.1563  1.6668
13945SOL    HW243277   1.723   4.909   2.277 -1.4787  0.5221 -0.7406
13946SOL     OW43278   7.607   1.498   6.888 -0.5511  0.1330  0.0866
13946SOL    HW143279   7.609   1.438   6.814 -1.0318  1.5082 -1.0857
13946SOL    HW243280   7.525   1.547   6.877 -1.3069 -0.4958  2.2671
13947SOL     OW43281   0.803   3.507   7.407  0.4252  0.5708 -0.3686
13947SOL    HW143282   0.866   3.569   7.444  2.4044  0.5406 -3.3804
13947SOL    HW243283   0.802   3.527   7.313  0.0960 -3.0427 -1.2810
13948SOL     OW43284   1.476   1.687   0.126 -0.4779 -0.4160 -1.0253
13948SOL    HW143285   1.549   1.748   0.138 -0.5242 -0.1894 -1.8214
13948SOL    HW243286   1.516   1.601   0.123 -0.3874 -0.4151 -0.1248
13949SOL     OW43287   0.597   1.116   5.598  0.2509  0.9735 -0.0628
13949SOL    HW143288   0.599   1.081   5.686  1.4066  0.0137 -0.4451
13949SOL    HW243289   0.632   1.046   5.543 -1.1628  1.2557 -1.3993
13950SOL     OW43290   2.473   1.226  10.268  0.3779  0.6663  0.1839
13950SOL    HW143291   2.441   1.163  10.203 -0.7749  0.6555  0.7454
13950SOL    HW243292   2.406   1.226  10.336  3.1853 -2.1437  3.3333
13951SOL     OW43293   3.388   4.311   0.054 -0.0248  0.1625 -0.0351
13951SOL    HW143294   3.384   4.239   0.118 -0.4737 -0.0237 -0.2697
13951SOL    HW243295   3.376   4.268  -0.030 -1.9664  0.7009 -0.0731
13952SOL     OW43296   4.141   1.523   2.273  0.1770 -0.6553 -0.1347
13952SOL    HW143297   4.202   1.478   2.331  0.4119 -0.2547 -0.0657
13952SOL    HW243298   4.139   1.613   2.306  1.1861 -0.1170 -1.4117
13953SOL     OW43299   1.778   0.330   2.828  0.0849 -0.1724 -0.0960
13953SOL    HW143300   1.765   0.239   2.803 -0.3697 -0.1769  0.1362
13953SOL    HW243301   1.726   0.340   2.908  1.6304 -0.2157  0.9669
13954SOL     OW43302   2.686   3.607   6.410  0.0553  0.1831 -0.9218
13954SOL    HW143303   2.725   3.522   6.430 -0.3162  0.3487  0.5797
13954SOL    HW243304   2.716   3.664   6.481  0.1183  1.2573 -1.7880
13955SOL     OW43305   4.673   2.869   7.733 -0.1079 -0.3921  0.5386
13955SOL    HW143306   4.600   2.930   7.743  0.8663  1.0231 -0.5739
13955SOL    HW243307   4.654   2.821   7.652  1.3173  1.7594 -1.2064
13956SOL     OW43308   7.729   5.751   9.152  0.2650 -0.4610  0.0939
13956SOL    HW143309   7.636   5.774   9.150  0.4979  0.5626  0.4091
13956SOL    HW243310   7.759   5.781   9.238  0.5991 -2.0043  0.5455
13957SOL     OW43311   6.507   7.222   7.447 -0.2113  0.1580  0.8305
13957SOL    HW143312   6.447   7.157   7.411  2.0776 -1.6921  0.1561
13957SOL    HW243313   6.559   7.174   7.510  0.5205  1.7341  1.4653
13958SOL     OW43314   7.672   2.874   0.146 -0.1359  0.2342 -0.4168
13958SOL    HW143315   7.754   2.833   0.174  0.6946  1.0656 -1.5291
13958SOL    HW243316   7.625   2.803   0.100 -1.2166 -0.9461  2.3139
13959SOL     OW43317   0.661   0.097   3.826  0.5356 -0.4112  0.1569
13959SOL    HW143318   0.636   0.179   3.783 -0.4954 -0.9132 -0.2285
13959SOL    HW243319   0.642   0.112   3.919 -0.2504 -0.4216  0.0049
13960SOL     OW43320   0.904   1.932  11.595  0.6196 -0.2290  0.9283
13960SOL    HW143321   0.882   1.925  11.688  0.6347  1.3820  1.0946
13960SOL    HW243322   0.904   2.027  11.578 -0.6394 -0.5273 -1.0234
13961SOL     OW43323   1.032   2.103   7.232 -0.5520 -0.1418 -0.5654
13961SOL    HW143324   0.970   2.176   7.237  1.5383  1.8991 -1.7539
13961SOL    HW243325   1.068   2.109   7.143 -1.1047 -3.4167 -1.1135
13962SOL     OW43326   6.393   4.214  10.588  0.0076  0.7121  0.0545
13962SOL    HW143327   6.468   4.177  10.541 -0.6649 -0.1629 -0.3785
13962SOL    HW243328   6.363   4.142  10.644 -2.1907  0.0388 -1.8356
13963SOL     OW43329   1.934   6.213   7.856  0.4526 -0.5676 -0.0198
13963SOL    HW143330   1.970   6.263   7.782  0.4958  0.5750  0.7500
13963SOL    HW243331   1.969   6.257   7.933 -2.7908  0.8248  0.8201
13964SOL     OW43332   0.856   0.051   9.768 -0.6383 -0.3086  0.1341
13964SOL    HW143333   0.916  -0.024   9.775 -0.1755  0.1897  2.9110
13964SOL    HW243334   0.867   0.083   9.679  2.0767 -1.2267  0.0451
13965SOL     OW43335   7.585   2.583   6.570  0.2524  0.2138  0.2085
13965SOL    HW143336   7.537   2.595   6.488 -1.4363  0.7355  1.2172
13965SOL    HW243337   7.630   2.667   6.584 -1.4359  1.0530  0.9822
13966SOL     OW43338   6.570   7.094   4.372  0.3204  0.0637 -0.2044
13966SOL    HW143339   6.580   7.109   4.278 -0.7176  0.6780 -0.2404
13966SOL    HW243340   6.531   7.007   4.379 -1.7022  0.8681 -0.5137
13967SOL     OW43341   4.701   5.111  10.007 -0.4341  0.0671 -0.1537
13967SOL    HW143342   4.775   5.112  10.068 -0.7878  0.3608  0.2720
13967SOL    HW243343   4.727   5.171   9.937  0.5159 -1.2126 -0.9555
13968SOL     OW43344   2.254   4.486   2.347  0.1112  0.3115  0.4750
13968SOL    HW143345   2.313   4.555   2.319 -1.1660  0.6272 -1.6706
13968SOL    HW243346   2.166   4.523   2.336 -0.6030 -1.5324 -0.4985
13969SOL     OW43347   3.814   6.363   5.690  0.1889 -0.0824  0.5827
13969SOL    HW143348   3.729   6.371   5.646 -0.8120  0.1696  2.4319
13969SOL    HW243349   3.794   6.318   5.772  2.1649 -1.6123  0.2902
13970SOL     OW43350   3.012   2.757   9.830  0.6722  0.5513  0.5150
13970SOL    HW143351   2.945   2.753   9.762  2.6480 -0.4857 -1.5192
13970SOL    HW243352   3.032   2.665   9.849  1.5787  0.8382  1.0181
13971SOL     OW43353   3.789   4.050   1.069 -0.2826 -0.5054 -0.7861
13971SOL    HW143354   3.820   3.986   1.005  0.9118 -1.0174  0.2699
13971SOL    HW243355   3.868   4.095   1.098 -1.0491  1.1136 -1.1136
13972SOL     OW43356   2.550   2.325   0.780  0.2390 -0.0914  0.1568
13972SOL    HW143357   2.568   2.382   0.855  1.5381  1.0717 -0.9856
13972SOL    HW243358   2.535   2.238   0.818  0.6733  0.5136  1.7615
13973SOL     OW43359   4.047   1.626  10.702 -0.0346  0.5687 -0.4876
13973SOL    HW143360   4.054   1.551  10.761 -0.4513  0.0397 -1.0908
13973SOL    HW243361   3.974   1.678  10.737 -0.8258 -0.1750 -0.9860
13974SOL     OW43362   3.269   0.834   0.761  0.5189 -0.6789  0.1144
13974SOL    HW143363   3.290   0.884   0.682  0.4793  0.6807  0.9289
13974SOL    HW243364   3.316   0.752   0.750  2.9302  0.6258 -0.0099
13975SOL     OW43365   6.871   0.751   8.439 -0.0819  0.2276 -0.8176
13975SOL    HW143366   6.914   0.679   8.394  0.1391 -0.6536  0.7432
13975SOL    HW243367   6.779   0.743   8.414 -0.0877 -0.7156 -0.5248
13976SOL     OW43368   5.773   6.871   5.423  0.0398 -0.5095  0.6343
13976SOL    HW143369   5.767   6.967   5.429 -1.9441 -0.5909  0.3965
13976SOL    HW243370   5.714   6.839   5.490 -1.3116 -1.5334 -0.9813
13977SOL     OW43371   2.196   7.957  12.268  0.3911  0.3818 -0.2389
13977SOL    HW143372   2.160   7.870  12.249 -1.5657  1.0153  0.4094
13977SOL    HW243373   2.165   8.012  12.196 -1.4312  1.3017  1.1626
13978SOL     OW43374   6.781   5.783  11.254  0.2241 -0.2955 -0.1877
13978SOL    HW143375   6.722   5.761  11.326  0.1558 -0.6299 -0.3436
13978SOL    HW243376   6.810   5.699  11.219  1.3427 -0.1425  0.3208
13979SOL     OW43377   5.616   1.293   3.127 -0.1281 -0.3326 -0.1804
13979SOL    HW143378   5.699   1.329   3.157 -1.2087  3.2946 -1.0000
13979SOL    HW243379   5.577   1.254   3.205  1.7956 -1.1436  0.4493
13980SOL     OW43380   0.170   1.966   8.044  0.0633 -0.2693 -0.0696
13980SOL    HW143381   0.177   1.926   8.130  0.0385 -1.6008 -0.6627
13980SOL    HW243382   0.239   1.925   7.992  0.1531  0.5981 -0.6645
13981SOL     OW43383   1.470   2.182   7.165 -0.2980 -0.5350  0.0870
13981SOL    HW143384   1.536   2.128   7.121 -0.0375 -0.9852  1.0051
13981SOL    HW243385   1.387   2.157   7.124  0.1392  0.4726 -1.5014
13982SOL     OW43386   7.205   0.091   5.915  0.1646 -0.4408 -0.4336
13982SOL    HW143387   7.231   0.167   5.863 -0.1018 -0.7868 -1.0769
13982SOL    HW243388   7.161   0.129   5.992 -1.5178  0.0563 -1.5743
13983SOL     OW43389   6.308   5.730   9.998 -0.1409 -0.2782 -0.3780
13983SOL    HW143390   6.277   5.758  10.084 -1.8118  0.4162 -1.1674
13983SOL    HW243391   6.376   5.793   9.976  0.6488 -0.7484  0.6147
13984SOL     OW43392   2.988   7.096   6.157 -0.2055 -0.8511 -0.3074
13984SOL    HW143393   2.980   7.051   6.242 -0.2593 -1.3946 -0.5932
13984SOL    HW243394   3.047   7.040   6.106 -0.4663 -0.7203 -0.7579
13985SOL     OW43395   0.742   0.316   9.076  0.3179  0.1057 -0.8971
13985SOL    HW143396   0.774   0.266   9.152  0.0430  2.2687  0.7260
13985SOL    HW243397   0.659   0.354   9.105 -0.9574 -0.7984 -3.1025
13986SOL     OW43398   7.575   5.234   8.436 -0.6863  0.1914 -0.0958
13986SOL    HW143399   7.626   5.292   8.493 -1.9767 -1.0076  2.4469
13986SOL    HW243400   7.586   5.148   8.475 -2.2351 -0.5719 -1.2737
13987SOL     OW43401   7.659   5.854   0.165  0.3784 -0.1186  0.0456
13987SOL    HW143402   7.564   5.870   0.163  0.3252 -0.4743 -0.3852
13987SOL    HW243403   7.678   5.838   0.257 -0.1202 -0.8656  0.0232
13988SOL     OW43404   0.857   7.953   8.922 -0.4362 -0.4177 -0.0645
13988SOL    HW143405   0.906   7.912   8.850 -1.9872 -2.3793 -0.0757
13988SOL    HW243406   0.824   8.035   8.885 -0.2204 -0.8319 -1.2044
13989SOL     OW43407   1.987   4.692   8.861 -0.2565 -0.1983 -0.4339
13989SOL    HW143408   2.015   4.780   8.835  0.4386 -0.2760  0.0353
13989SOL    HW243409   1.908   4.676   8.809 -0.2525  0.6045 -0.7021
13990SOL     OW43410   0.109   0.531   1.936 -0.6873 -0.0132 -0.0372
13990SOL    HW143411   0.170   0.458   1.946 -0.4117  0.2975  0.5533
13990SOL    HW243412   0.035   0.508   1.993 -1.2277 -0.4777 -0.8864
13991SOL     OW43413   0.576   0.663   0.757  0.1262 -0.2931 -0.3943
13991SOL    HW143414   0.585   0.609   0.835  0.3807 -0.6424 -0.6667
13991SOL    HW243415   0.481   0.675   0.747  0.1302  1.1690  0.9371
13992SOL     OW43416   2.986   0.768   2.039  0.9293  0.0089 -0.0243
13992SOL    HW143417   2.936   0.850   2.037 -0.6394 -0.9141  0.1123
13992SOL    HW243418   2.920   0.700   2.050  2.2268 -1.2734  0.0545
13993SOL     OW43419   6.961   2.810  10.309 -0.4262  0.4248 -0.2780
13993SOL    HW143420   6.885   2.818  10.251 -0.8484 -0.0171  0.1950
13993SOL    HW243421   7.014   2.741  10.270 -1.1014 -0.4302  0.2530
13994SOL     OW43422   5.764   7.677   4.567 -0.1388 -0.0184 -0.0355
13994SOL    HW143423   5.853   7.644   4.573 -0.8743 -2.3539 -1.0735
13994SOL    HW243424   5.722   7.646   4.648 -0.1112  0.8463  0.3233
13995SOL     OW43425   0.298   2.520   2.100  0.6232  0.4032 -0.2323
13995SOL    HW143426   0.253   2.515   2.184  0.7675  0.0567 -0.1743
13995SOL    HW243427   0.270   2.603   2.063  0.0907  0.2869 -0.1031
13996SOL     OW43428   6.179   1.046   0.358 -0.0574 -0.8887  0.5320
13996SOL    HW143429   6.108   1.016   0.301  0.5503  0.0301 -0.7729
13996SOL    HW243430   6.184   1.140   0.342  0.1044 -0.5963  2.1780
13997SOL     OW43431   1.447   4.694   0.786 -0.4772 -0.0895  0.5886
13997SOL    HW143432   1.501   4.674   0.862 -0.8401 -1.9781  0.4208
13997SOL    HW243433   1.383   4.758   0.817  0.6666  0.7583  1.2792
13998SOL     OW43434   1.383   2.378   6.826  1.1770  0.1796 -0.3909
13998SOL    HW143435   1.398   2.466   6.793  1.1615  1.9067  3.6712
13998SOL    HW243436   1.468   2.352   6.864  0.2408  0.1186  1.7900
13999SOL     OW43437   6.602   7.545  11.789  0.3526 -0.2774 -0.0799
13999SOL    HW143438   6.600   7.623  11.846 -0.2225  0.0213 -0.4961
13999SOL    HW243439   6.688   7.506  11.806  2.4003  2.5835 -2.6670
14000SOL     OW43440   2.558   7.865   3.160 -0.4331 -0.2769  0.1547
14000SOL    HW143441   2.472   7.869   3.119 -0.0708  2.0279 -0.5596
14000SOL    HW243442   2.614   7.917   3.103  1.4176 -1.5605  0.7049
14001SOL     OW43443   6.033   7.650   1.130  0.2263 -0.1940  0.8696
14001SOL    HW143444   6.102   7.600   1.086  0.5506 -0.1441  1.3237
14001SOL    HW243445   6.064   7.662   1.219 -0.9976 -1.3855  1.4827
14002SOL     OW43446   0.666   4.708   9.270  0.0829  0.6333 -0.0997
14002SOL    HW143447   0.654   4.801   9.289  1.6882  1.0717 -1.0181
14002SOL    HW243448   0.760   4.692   9.284 -0.1820 -0.8953  0.1949
14003SOL     OW43449   0.706   2.313   9.798  0.1488  0.3236  0.0861
14003SOL    HW143450   0.726   2.268   9.717 -0.6774 -0.8086  0.4958
14003SOL    HW243451   0.692   2.243   9.862  0.0721  1.1804  1.0332
14004SOL     OW43452   3.518   1.931   5.529 -0.6320  0.3911  0.0028
14004SOL    HW143453   3.461   1.938   5.452 -0.6532 -1.3948 -0.1740
14004SOL    HW243454   3.501   2.012   5.578  0.2671  2.1661 -2.4158
14005SOL     OW43455   0.783   7.108   2.975 -0.6309 -0.0807 -0.0260
14005SOL    HW143456   0.743   7.151   3.050 -0.8737 -0.3099 -0.0196
14005SOL    HW243457   0.877   7.124   2.984 -0.7859  1.1482 -0.4679
14006SOL     OW43458   6.896   0.244   5.643 -0.3972  0.0796  0.1574
14006SOL    HW143459   6.955   0.313   5.613  0.9905 -1.1714 -0.1296
14006SOL    HW243460   6.915   0.170   5.585  0.6897 -1.6665  2.5770
14007SOL     OW43461   1.372   0.104   3.300 -0.3005 -0.6688 -0.5165
14007SOL    HW143462   1.439   0.062   3.354  0.3310 -1.0976 -1.5995
14007SOL    HW243463   1.379   0.060   3.215 -1.3787 -0.1251 -0.9042
14008SOL     OW43464   5.764   0.980  12.016  0.0522 -0.4664  0.5071
14008SOL    HW143465   5.836   1.042  12.027 -1.7307  1.6750  0.8640
14008SOL    HW243466   5.776   0.944  11.928  2.2677 -1.2237  1.0555
14009SOL     OW43467   4.942   2.181   0.496  0.0163 -0.0019  0.2674
14009SOL    HW143468   4.973   2.123   0.565  2.2664  1.1224  0.2919
14009SOL    HW243469   4.997   2.160   0.421 -2.0779 -0.8793 -1.1285
14010SOL     OW43470   5.647   4.769  11.083 -0.3457 -0.1170 -0.2872
14010SOL    HW143471   5.732   4.802  11.111  0.8291 -0.5248 -3.0877
14010SOL    HW243472   5.659   4.675  11.076 -1.3550 -0.2980  0.2960
14011SOL     OW43473   6.349   5.784   8.445 -0.3611 -0.4851 -0.1012
14011SOL    HW143474   6.301   5.764   8.365 -1.6896  0.8847  0.3168
14011SOL    HW243475   6.381   5.699   8.476 -1.0078 -1.1965 -1.3305
14012SOL     OW43476   0.102   5.981   0.138  0.1961  0.0180 -0.1818
14012SOL    HW143477   0.041   5.911   0.116 -1.6427  1.1697  0.9960
14012SOL    HW243478   0.049   6.060   0.139  2.0946  1.3726 -0.8758
14013SOL     OW43479   6.972   5.721   9.789  0.5950 -0.0981  0.0258
14013SOL    HW143480   6.959   5.815   9.805  0.0472 -0.1097 -0.3086
14013SOL    HW243481   7.048   5.698   9.841 -0.1718  0.2053  1.3238
14014SOL     OW43482   5.163   1.524   1.898  0.0551  0.7953  0.1275
14014SOL    HW143483   5.110   1.586   1.848 -1.0092  0.1832  0.4743
14014SOL    HW243484   5.116   1.512   1.981 -0.3038 -1.1983 -0.3035
14015SOL     OW43485   1.380   4.992  12.130  0.4453  0.6325  0.0405
14015SOL    HW143486   1.387   4.915  12.186 -2.4187  0.3626  0.1600
14015SOL    HW243487   1.322   5.052  12.178  1.6107  2.3668 -0.6158
14016SOL     OW43488   1.686   3.899  11.270 -0.0695  0.0540 -0.2807
14016SOL    HW143489   1.758   3.885  11.332 -0.6820 -1.1850  0.1830
14016SOL    HW243490   1.608   3.870  11.317 -0.4389 -1.8702 -1.9577
14017SOL     OW43491   3.955   4.313   1.977  0.5061  0.2656  0.0560
14017SOL    HW143492   4.040   4.287   2.013  1.1052 -0.5285 -1.7989
14017SOL    HW243493   3.956   4.280   1.887 -1.2141  1.4582 -0.4566
14018SOL     OW43494   6.239   2.243   6.654 -0.5784 -0.1488 -0.2685
14018SOL    HW143495   6.257   2.195   6.735 -0.4141  0.6890  0.2080
14018SOL    HW243496   6.173   2.190   6.609 -0.5716 -0.6971  0.3506
14019SOL     OW43497   6.619   2.179   4.991  0.2689 -0.2226  0.1441
14019SOL    HW143498   6.552   2.113   4.973  0.5270  0.0305 -1.9967
14019SOL    HW243499   6.596   2.252   4.934  1.6605  0.3589  0.2973
14020SOL     OW43500   6.077   5.239  11.127  0.4687 -0.4593  0.3210
14020SOL    HW143501   5.993   5.284  11.136  0.5861 -0.3605  1.0191
14020SOL    HW243502   6.121   5.254  11.211  1.0206 -0.8420  0.1066
14021SOL     OW43503   4.062   5.560   3.237  0.4695  0.1806 -0.3523
14021SOL    HW143504   4.013   5.546   3.318  0.2520  0.5179 -0.4223
14021SOL    HW243505   4.144   5.513   3.251  0.9398  1.2262  0.5497
14022SOL     OW43506   0.289   3.693   8.572 -0.0267 -0.4584  0.3092
14022SOL    HW143507   0.330   3.715   8.488 -3.0976  0.8447 -1.0142
14022SOL    HW243508   0.230   3.621   8.552 -0.2617 -0.6190  1.5256
14023SOL     OW43509   0.566   0.736   5.302  0.1419  0.0001 -0.1606
14023SOL    HW143510   0.617   0.814   5.323 -0.5058  0.3950 -0.0214
14023SOL    HW243511   0.630   0.672   5.272  0.8338  0.1433  0.9816
14024SOL     OW43512   1.991   0.763   7.535  0.2434  0.1153 -0.1557
14024SOL    HW143513   1.984   0.684   7.589 -3.2451  0.1558 -0.3053
14024SOL    HW243514   1.947   0.831   7.585 -0.3192  0.9468 -1.6979
14025SOL     OW43515   1.233   4.319   0.487  0.0705 -0.2340  0.5000
14025SOL    HW143516   1.303   4.372   0.525 -0.0738 -0.3084  0.8747
14025SOL    HW243517   1.180   4.381   0.437  1.3278 -0.4306 -1.1698
14026SOL     OW43518   2.144   1.194   1.234  0.6736  0.1603  0.4981
14026SOL    HW143519   2.221   1.231   1.190 -1.6956  0.4022 -4.0478
14026SOL    HW243520   2.148   1.101   1.212  0.4941 -0.1492  1.7224
14027SOL     OW43521   2.611   7.506   3.055 -0.2562  0.2516  0.3977
14027SOL    HW143522   2.612   7.557   2.973  0.9481 -0.8961 -0.3378
14027SOL    HW243523   2.665   7.557   3.115 -1.0821  1.0626  0.4858
14028SOL     OW43524   4.176   4.525   5.853 -0.4009 -0.0236 -0.6818
14028SOL    HW143525   4.193   4.550   5.944  2.0879  2.4946 -1.6905
14028SOL    HW243526   4.089   4.559   5.834 -0.3512  0.7443  0.3640
14029SOL     OW43527   7.828   4.432  12.119 -0.4667 -0.1941 -0.0058
14029SOL    HW143528   7.768   4.421  12.045  0.7558  0.7247 -1.1807
14029SOL    HW243529   7.790   4.502  12.170  0.0382  1.0378 -1.2550
14030SOL     OW43530   7.558   3.228   1.941 -0.7902  0.1367 -0.4077
14030SOL    HW143531   7.625   3.265   1.882  0.0732 -1.2864 -0.3634
14030SOL    HW243532   7.498   3.301   1.957  0.5564  1.3747 -0.7228
14031SOL     OW43533   1.341   2.691   5.639 -0.6924 -0.8129  0.0447
14031SOL    HW143534   1.281   2.752   5.596 -1.3967  0.0471  2.1007
14031SOL    HW243535   1.427   2.713   5.605 -0.5728  3.0160  2.3335
14032SOL     OW43536   5.143   3.915   9.594 -0.2474 -0.0057  0.0056
14032SOL    HW143537   5.086   3.839   9.601  0.7500 -1.2809 -3.6947
14032SOL    HW243538   5.099   3.983   9.645 -3.6865 -1.6442 -0.5259
14033SOL     OW43539   4.926   3.494  11.409 -0.1685 -0.2754  0.5625
14033SOL    HW143540   4.919   3.588  11.423 -0.0774  0.1586 -1.7882
14033SOL    HW243541   4.977   3.461  11.482 -0.4630  1.4516  1.5765
14034SOL     OW43542   4.531   7.088   7.339 -0.0590  0.2539 -0.0017
14034SOL    HW143543   4.561   7.083   7.248 -0.2174  0.6509 -0.0750
14034SOL    HW243544   4.467   7.017   7.347 -0.0109  0.1888 -0.1860
14035SOL     OW43545   1.911   2.306   9.138 -0.1005  0.3283 -0.2788
14035SOL    HW143546   1.853   2.358   9.193  1.9521  0.4730  1.8598
14035SOL    HW243547   1.886   2.215   9.156 -0.3232  0.4090 -0.1776
14036SOL     OW43548   1.661   4.751   8.076 -0.1873 -0.1024  1.1491
14036SOL    HW143549   1.736   4.694   8.090  0.6951  1.0851  1.4409
14036SOL    HW243550   1.650   4.755   7.981  0.6895  0.4027  1.0549
14037SOL     OW43551   5.097   5.446   7.991 -0.2302  0.6649  0.4534
14037SOL    HW143552   5.138   5.361   8.010 -2.5122  0.0557  3.3904
14037SOL    HW243553   5.139   5.507   8.051 -0.8915  0.8588  0.7298
14038SOL     OW43554   2.753   6.425   7.094 -0.3197 -0.0562  1.1930
14038SOL    HW143555   2.700   6.481   7.037  0.6586 -0.1806  0.1355
14038SOL    HW243556   2.825   6.396   7.039  0.4048 -0.5591  2.3742
14039SOL     OW43557   4.032   5.347   7.373 -0.3313 -0.0868  0.4180
14039SOL    HW143558   4.104   5.341   7.310 -0.4564 -2.6210  0.4118
14039SOL    HW243559   3.953   5.347   7.319 -0.4306 -1.9922  0.5181
14040SOL     OW43560   5.766   0.345   5.161  0.5199  0.1579 -0.7434
14040SOL    HW143561   5.832   0.343   5.231 -0.7252  0.8142  0.5165
14040SOL    HW243562   5.816   0.339   5.080  1.9258 -2.1928  0.2090
14041SOL     OW43563   3.177   2.167   5.424 -0.3779  0.0776 -0.5730
14041SOL    HW143564   3.170   2.193   5.332 -0.3998 -0.4126 -0.7119
14041SOL    HW243565   3.229   2.236   5.465  0.5384 -0.2337 -1.1764
14042SOL     OW43566   1.984   3.835   6.719  0.0965 -0.2205  0.1644
14042SOL    HW143567   1.921   3.859   6.651  0.6974  1.0857  0.0533
14042SOL    HW243568   1.939   3.766   6.769 -1.2337  0.3311 -0.2152
14043SOL     OW43569   3.088   0.698   0.565 -0.2523  0.4924  0.1030
14043SOL    HW143570   3.038   0.755   0.623  0.8743  0.3495  1.2691
14043SOL    HW243571   3.040   0.616   0.565 -0.2151  0.4612  0.9301
14044SOL     OW43572   5.003   7.945  10.962  0.0150  0.3377  0.1460
14044SOL    HW143573   5.082   7.919  10.914 -0.1392  1.2005 -0.6070
14044SOL    HW243574   5.030   7.947  11.054  0.2110 -1.7316  0.1812
14045SOL     OW43575   3.925   7.181  11.323  0.3115  0.2348  0.4593
14045SOL    HW143576   3.910   7.274  11.342  1.1645  0.3857  0.4455
14045SOL    HW243577   3.865   7.135  11.382  2.1287  0.7317  2.8512
14046SOL     OW43578   2.073   1.277   2.431 -0.0329 -0.0760 -0.2156
14046SOL    HW143579   2.055   1.277   2.525  1.9858  0.6684  0.2255
14046SOL    HW243580   2.054   1.366   2.403  0.0313 -0.1090 -0.3641
14047SOL     OW43581   1.070   5.803  11.485  0.7541  0.2600 -0.0071
14047SOL    HW143582   1.094   5.721  11.527  0.6644  0.2091 -0.0558
14047SOL    HW243583   1.083   5.870  11.552 -0.5616  0.0416  0.4887
14048SOL     OW43584   4.180   0.249   5.819  0.2901  0.0306  0.6023
14048SOL    HW143585   4.119   0.200   5.764  0.2479 -0.2524  0.9056
14048SOL    HW243586   4.204   0.325   5.765  2.4363 -1.6511 -0.9624
14049SOL     OW43587   2.087   1.395  12.264 -0.9252  0.2238  0.1237
14049SOL    HW143588   2.154   1.327  12.264 -2.5666 -1.4754 -1.0819
14049SOL    HW243589   2.066   1.408  12.171 -1.0643  1.9673  0.3695
14050SOL     OW43590   7.487   5.217   5.751  0.3125  0.1712  0.2537
14050SOL    HW143591   7.518   5.141   5.702  1.4526  0.1148  1.0016
14050SOL    HW243592   7.395   5.225   5.729  0.3710 -0.9506 -0.4567
14051SOL     OW43593   2.782   5.096   6.124 -0.0772 -0.1588 -0.4130
14051SOL    HW143594   2.803   5.069   6.035 -0.6031 -0.3745 -0.4805
14051SOL    HW243595   2.744   5.017   6.164 -2.8043  0.7307 -0.9914
14052SOL     OW43596   1.116   3.908   0.457  0.0614 -0.4553 -0.0408
14052SOL    HW143597   1.110   3.981   0.396 -1.2135 -2.4970 -2.6014
14052SOL    HW243598   1.025   3.880   0.470  0.4469 -1.1285  1.4729
14053SOL     OW43599   2.984   3.414   7.775  0.2050 -0.0217 -0.5287
14053SOL    HW143600   3.059   3.366   7.808  0.3846 -0.4298 -1.4894
14053SOL    HW243601   3.006   3.506   7.789 -0.4876 -0.1687  2.0756
14054SOL     OW43602   7.313   4.828   9.427  0.4911 -0.2142  0.5971
14054SOL    HW143603   7.313   4.812   9.521 -0.1011 -0.2560  0.5895
14054SOL    HW243604   7.221   4.822   9.401  0.7181 -0.8057 -0.0841
14055SOL     OW43605   4.274   7.295   9.688  0.0746 -0.4887  0.4486
14055SOL    HW143606   4.235   7.349   9.756 -1.1073 -0.1427 -0.4756
14055SOL    HW243607   4.201   7.273   9.630  1.1248 -0.3855 -0.9624
14056SOL     OW43608   4.192   5.516  11.179  0.0324 -0.3465 -0.3836
14056SOL    HW143609   4.209   5.457  11.252  0.2253 -0.7125 -0.7201
14056SOL    HW243610   4.154   5.461  11.111 -0.3142  0.0257 -0.4952
14057SOL     OW43611   1.322   7.290   3.089  0.1742  0.4292 -0.6023
14057SOL    HW143612   1.307   7.353   3.160 -0.4583  0.7328 -1.0013
14057SOL    HW243613   1.275   7.326   3.014  0.1558 -0.3055 -0.9522
14058SOL     OW43614   3.318   5.191   5.029 -0.0821 -0.2586  0.4910
14058SOL    HW143615   3.290   5.227   5.113 -0.8748 -1.3229  0.7100
14058SOL    HW243616   3.362   5.109   5.052 -1.2694 -1.1181 -0.1703
14059SOL     OW43617   6.191   2.230  11.192 -0.2591 -0.2455 -0.0788
14059SOL    HW143618   6.272   2.275  11.168 -0.1756  0.9221  2.1078
14059SOL    HW243619   6.220   2.154  11.242 -0.4959 -0.1446  0.2153
14060SOL     OW43620   0.471   2.184   2.372 -0.1379 -0.3209 -0.0868
14060SOL    HW143621   0.527   2.144   2.438 -2.3495 -1.4744  1.2453
14060SOL    HW243622   0.403   2.119   2.356 -1.7451  1.4160 -0.7248
14061SOL     OW43623   7.387   2.078  11.565  0.8856  0.5165  0.2521
14061SOL    HW143624   7.326   2.015  11.604  0.6364  1.6809  1.8851
14061SOL    HW243625   7.424   2.124  11.641  1.2319  2.1550 -0.8676
14062SOL     OW43626   2.859   5.344   0.732 -0.1551 -0.1105  0.1815
14062SOL    HW143627   2.890   5.377   0.647 -1.8292  0.3185 -0.3069
14062SOL    HW243628   2.933   5.295   0.767  1.2981  1.4361 -0.5815
14063SOL     OW43629   6.315   6.337   1.845  0.5113  0.0611 -0.0607
14063SOL    HW143630   6.274   6.421   1.866  0.9690 -0.0303  1.3089
14063SOL    HW243631   6.276   6.311   1.762  0.3922  1.6470 -0.5232
14064SOL     OW43632   4.588   7.797   8.766 -0.0803  0.4447 -0.3892
14064SOL    HW143633   4.642   7.725   8.733  2.3685  1.5850  0.8523
14064SOL    HW243634   4.531   7.756   8.831  0.1634 -0.6100 -0.8111
14065SOL     OW43635   0.920   2.401   4.181  0.1500 -0.1338 -0.2422
14065SOL    HW143636   0.835   2.445   4.182  0.2468  0.0641  1.1000
14065SOL    HW243637   0.902   2.314   4.215  0.4597 -0.1385 -0.0874
14066SOL     OW43638   6.874   4.233   6.422  0.2037 -0.5168  0.3394
14066SOL    HW143639   6.926   4.313   6.427  0.1620 -0.4265 -0.5980
14066SOL    HW243640   6.803   4.247   6.485 -1.4556  1.4280 -1.7808
14067SOL     OW43641   6.813   4.920   7.249  0.8999 -0.0204  0.2183
14067SOL    HW143642   6.804   5.016   7.247 -2.8761 -0.2156 -0.9177
14067SOL    HW243643   6.897   4.903   7.207  0.1976  2.7802 -2.7229
14068SOL     OW43644   0.274   0.428   8.774  0.1964  0.1992 -0.0008
14068SOL    HW143645   0.328   0.349   8.760 -1.2161 -1.6140  3.4617
14068SOL    HW243646   0.241   0.450   8.687  1.6741 -2.2747 -1.3184
14069SOL     OW43647   3.231   0.433   2.679 -0.4219  0.0102  0.0486
14069SOL    HW143648   3.238   0.370   2.607  1.1604  0.3392 -0.1269
14069SOL    HW243649   3.163   0.396   2.736 -0.8218 -0.9022 -0.9691
14070SOL     OW43650   6.936   2.798   2.277  0.1513  1.0176  0.0046
14070SOL    HW143651   6.990   2.877   2.285  0.9252  0.5929 -0.8585
14070SOL    HW243652   6.999   2.727   2.271 -0.4975  0.5474 -1.4586
14071SOL     OW43653   4.836   6.229   9.210  0.7271 -0.3201  1.0175
14071SOL    HW143654   4.875   6.289   9.274  1.9666 -0.3445  0.3042
14071SOL    HW243655   4.909   6.177   9.177 -0.4322 -2.9222  2.2715
14072SOL     OW43656   7.040   4.898   7.564  0.3398  0.0661 -0.2275
14072SOL    HW143657   7.053   4.807   7.537  1.1745  0.1181 -0.0322
14072SOL    HW243658   7.087   4.905   7.647  1.8367  1.1403 -1.1199
14073SOL     OW43659   4.720   7.304   2.920  0.3488  0.2835 -0.1353
14073SOL    HW143660   4.664   7.257   2.858  1.5841 -0.3235 -0.8082
14073SOL    HW243661   4.735   7.242   2.991  0.8119  0.1724 -0.3313
14074SOL     OW43662   2.235   5.667   6.958  0.4041 -0.0666 -0.4444
14074SOL    HW143663   2.232   5.678   7.053 -1.8569  2.2243 -0.6562
14074SOL    HW243664   2.239   5.572   6.945  1.9399 -0.4007  1.8938
14075SOL     OW43665   2.651   4.073   0.058 -0.1720 -0.1674 -0.5929
14075SOL    HW143666   2.630   4.028   0.139 -2.8438  1.5389 -0.1940
14075SOL    HW243667   2.722   4.133   0.081 -1.2805  0.7131  0.7353
14076SOL     OW43668   7.192   2.529   8.193  0.1349 -0.0452 -0.0421
14076SOL    HW143669   7.187   2.601   8.256  1.9380  0.9313 -0.9082
14076SOL    HW243670   7.127   2.551   8.127 -1.7593 -1.0685  1.3850
14077SOL     OW43671   5.280   1.708   4.193 -0.3582 -0.0692  0.2124
14077SOL    HW143672   5.328   1.692   4.112 -1.6397 -0.4578 -0.4837
14077SOL    HW243673   5.277   1.623   4.236 -0.9446 -0.1794 -0.0399
14078SOL     OW43674   6.460   1.314   3.884 -0.1501 -0.2295  0.3006
14078SOL    HW143675   6.391   1.270   3.835 -0.3060  1.0517 -0.6804
14078SOL    HW243676   6.414   1.366   3.949 -0.0334 -0.4950  0.5979
14079SOL     OW43677   3.937   7.830   9.952 -0.0289  0.0780  0.2593
14079SOL    HW143678   3.997   7.902   9.932 -1.1938  1.2002  0.6842
14079SOL    HW243679   3.879   7.865  10.020  0.1602 -1.6947  1.3910
14080SOL     OW43680   3.804   5.089   6.049 -0.6006 -0.0694 -0.5010
14080SOL    HW143681   3.822   5.091   5.955 -1.4858  1.2454 -0.6764
14080SOL    HW243682   3.767   5.001   6.064  0.3554 -0.6061 -1.2018
14081SOL     OW43683   6.604   4.279   1.589 -0.1528 -0.4036  0.2114
14081SOL    HW143684   6.690   4.306   1.621 -0.5718  0.8167  0.3704
14081SOL    HW243685   6.573   4.215   1.654  0.8618 -1.3179 -0.1676
14082SOL     OW43686   3.842   7.212   6.547  0.3435  0.5444 -0.6772
14082SOL    HW143687   3.776   7.145   6.527  0.7147 -0.0736  0.1321
14082SOL    HW243688   3.868   7.245   6.461 -1.1000  0.8859 -1.0156
14083SOL     OW43689   1.580   4.312  12.247  0.1646 -0.5434  0.0747
14083SOL    HW143690   1.566   4.288  12.338  1.0593 -0.7895  0.1556
14083SOL    HW243691   1.521   4.255  12.198  0.2197 -0.9288  0.4513
14084SOL     OW43692   7.570   1.346  10.655  0.3096  0.5204 -0.7047
14084SOL    HW143693   7.661   1.329  10.628  0.5615 -0.2154  0.5444
14084SOL    HW243694   7.578   1.410  10.726 -0.2710  1.6204 -1.5959
14085SOL     OW43695   2.985   5.037   8.289  0.2809  0.0692  0.0908
14085SOL    HW143696   2.966   4.957   8.240 -1.8612 -0.3772  1.5233
14085SOL    HW243697   2.943   5.023   8.374  0.0402  2.6458  0.4523
14086SOL     OW43698   0.446   4.857   6.876 -0.2194 -0.1763  0.3338
14086SOL    HW143699   0.511   4.816   6.933  0.0657 -0.6324 -0.3181
14086SOL    HW243700   0.366   4.858   6.928  0.6593  1.8871  1.7943
14087SOL     OW43701   7.809   6.182  10.773  0.4817 -0.1212 -0.0517
14087SOL    HW143702   7.820   6.117  10.703  0.5414 -0.1949  0.0253
14087SOL    HW243703   7.821   6.266  10.729  0.3901 -0.1619 -0.1550
14088SOL     OW43704   4.088   4.906  10.657  0.3484 -0.5858  0.2645
14088SOL    HW143705   3.997   4.915  10.684  0.3295 -1.1006  0.3731
14088SOL    HW243706   4.133   4.873  10.734  0.7664  0.3588  0.4352
14089SOL     OW43707   1.546   4.227   0.067  0.0052 -0.3739 -0.1991
14089SOL    HW143708   1.628   4.241   0.113 -0.9856  0.4432  1.4045
14089SOL    HW243709   1.538   4.132   0.059  0.6914 -0.4871  0.4129
14090SOL     OW43710   2.939   4.371   8.444  0.1101  0.1035  0.3321
14090SOL    HW143711   2.926   4.396   8.536  0.6662  1.1101  0.1545
14090SOL    HW243712   3.034   4.358   8.437 -0.0944 -1.4139  0.2406
14091SOL     OW43713   5.645   6.224   4.110  0.0236 -0.1068  0.2701
14091SOL    HW143714   5.563   6.255   4.072  0.4790 -0.4495 -1.0521
14091SOL    HW243715   5.711   6.244   4.043  1.0436  0.2362  1.3330
14092SOL     OW43716   4.065   2.259   7.374 -0.1597 -0.0787  0.7057
14092SOL    HW143717   4.116   2.261   7.294 -0.4084  1.2830  0.5584
14092SOL    HW243718   4.073   2.169   7.406 -1.6084 -1.2107 -1.8267
14093SOL     OW43719   1.718   1.956  11.297  0.2722  0.6397 -0.2812
14093SOL    HW143720   1.688   1.926  11.382 -1.4696  0.0564 -1.0511
14093SOL    HW243721   1.694   2.048  11.294  1.3288  0.9490  0.2543
14094SOL     OW43722   5.489   4.067   0.519 -0.1989  0.1645 -0.2300
14094SOL    HW143723   5.397   4.049   0.537 -0.3189  1.0638  0.1280
14094SOL    HW243724   5.488   4.137   0.454  0.2101  1.2163  0.8616
14095SOL     OW43725   2.280   2.044   9.586 -0.6813 -0.2708 -0.6837
14095SOL    HW143726   2.261   2.130   9.548  0.1410  0.0133 -0.4617
14095SOL    HW243727   2.219   1.984   9.542 -2.9955  0.7901  0.8647
14096SOL     OW43728   0.185   2.040   9.379  0.5793 -0.4339 -0.7758
14096SOL    HW143729   0.196   1.956   9.336  2.0187 -0.8244  0.2900
14096SOL    HW243730   0.249   2.098   9.339  0.2519 -0.1085 -0.8413
14097SOL     OW43731   0.013   3.269   6.124  0.4785 -0.2557 -0.8404
14097SOL    HW143732  -0.002   3.223   6.042  0.0674  0.0441 -0.9358
14097SOL    HW243733   0.062   3.348   6.100 -0.2666  0.1998 -0.8995
14098SOL     OW43734   7.697   3.741   4.515  0.7113 -0.0976 -0.1393
14098SOL    HW143735   7.655   3.821   4.547  1.6265  1.0577 -1.6881
14098SOL    HW243736   7.633   3.672   4.532 -1.9498  1.5595 -2.4657
14099SOL     OW43737   6.275   1.630  10.458  0.4601 -0.9118  0.0375
14099SOL    HW143738   6.231   1.689  10.520 -0.0574 -0.4153 -0.7772
14099SOL    HW243739   6.333   1.687  10.408  1.7767 -1.5016  0.8355
14100SOL     OW43740   6.166   1.241   8.110  0.2992  0.1404  0.0030
14100SOL    HW143741   6.158   1.313   8.047 -0.5739  0.6182  0.6249
14100SOL    HW243742   6.193   1.284   8.191  1.2168 -0.4408  0.0052
14101SOL     OW43743   4.940   3.366   3.225  0.6182  0.4325 -0.1082
14101SOL    HW143744   4.899   3.293   3.179  0.3259  0.8259 -0.4820
14101SOL    HW243745   4.875   3.436   3.222  1.1589  0.9371 -0.3613
14102SOL     OW43746   5.510   7.101   9.007 -0.0922  0.0133 -0.0907
14102SOL    HW143747   5.447   7.174   9.008  0.2206  0.2880  0.7014
14102SOL    HW243748   5.469   7.035   8.952 -1.5860 -0.2435  1.2507
14103SOL     OW43749   5.092   3.515  11.779 -0.6963  0.3497 -0.9052
14103SOL    HW143750   5.124   3.541  11.865  0.3739 -1.2123 -0.8066
14103SOL    HW243751   5.001   3.545  11.777 -1.9349 -2.6051  2.1753
14104SOL     OW43752   4.129   0.481   8.629  0.3465  0.2173 -0.1759
14104SOL    HW143753   4.126   0.439   8.543 -1.9300 -0.1001 -0.0065
14104SOL    HW243754   4.180   0.420   8.683  0.0594 -0.6135 -0.8080
14105SOL     OW43755   7.027   4.052   5.467  0.5416 -0.3788  0.1362
14105SOL    HW143756   7.046   4.134   5.422 -1.4997  0.4197  0.6480
14105SOL    HW243757   7.113   4.013   5.482  1.7486  2.4379  1.3175
14106SOL     OW43758   0.350   1.412   1.304 -0.0133  0.5175 -0.3868
14106SOL    HW143759   0.368   1.490   1.250  1.0587  0.4044 -0.2085
14106SOL    HW243760   0.280   1.441   1.363 -0.8115  0.8210 -1.4300
14107SOL     OW43761   2.802   7.446   7.076 -0.3339  0.1016  0.2399
14107SOL    HW143762   2.849   7.445   7.159  1.2230  1.1934 -0.5868
14107SOL    HW243763   2.735   7.514   7.087  0.0144  0.4024  0.5201
14108SOL     OW43764   4.107   5.986   8.433 -0.4274  0.3778 -0.3778
14108SOL    HW143765   4.107   5.961   8.525 -0.2394  1.3430 -0.1044
14108SOL    HW243766   4.091   6.080   8.434  0.2113  0.5097 -1.2901
14109SOL     OW43767   1.442   6.678   2.241  0.0957  0.9970  0.1894
14109SOL    HW143768   1.481   6.603   2.196  0.2216  1.5338 -0.6234
14109SOL    HW243769   1.348   6.668   2.229  0.0582  0.5099  0.8406
14110SOL     OW43770   5.414   6.342   3.979  0.3112 -0.2340 -0.1913
14110SOL    HW143771   5.415   6.437   3.992  0.5792  0.0946 -2.2738
14110SOL    HW243772   5.345   6.310   4.037  1.3953  0.9580  1.9125
14111SOL     OW43773   6.676   0.397   5.555  0.0049  0.3576 -0.0191
14111SOL    HW143774   6.649   0.342   5.481 -0.8414  0.8740 -0.0955
14111SOL    HW243775   6.758   0.356   5.585 -1.0168 -1.4673  0.4590
14112SOL     OW43776   3.166   3.027   9.249  0.1325 -0.0638 -0.4894
14112SOL    HW143777   3.153   2.975   9.328 -0.2587  1.3891  0.4361
14112SOL    HW243778   3.256   3.059   9.255 -0.6294  2.0267  0.6423
14113SOL     OW43779   1.628   1.917   9.472 -0.3057 -0.1632 -0.3349
14113SOL    HW143780   1.638   1.973   9.395  0.0497  0.0861 -0.1099
14113SOL    HW243781   1.659   1.970   9.545  0.7494 -0.9162 -0.2198
14114SOL     OW43782   5.565   5.062   4.661 -0.0197 -0.5502 -0.0238
14114SOL    HW143783   5.611   5.086   4.742 -0.0210 -1.5108  0.2766
14114SOL    HW243784   5.617   4.990   4.626 -0.5111 -0.7090 -0.4247
14115SOL     OW43785   2.154   7.675  12.283  0.2058 -0.9251  0.3064
14115SOL    HW143786   2.220   7.698  12.349  0.0565  0.8607 -0.1117
14115SOL    HW243787   2.176   7.586  12.258  1.0212 -1.2111  1.8708
14116SOL     OW43788   0.808   3.876  11.289 -0.1539 -0.0967 -0.0515
14116SOL    HW143789   0.810   3.913  11.378 -1.6531 -0.2353  0.0542
14116SOL    HW243790   0.879   3.811  11.289 -0.8571 -0.9160  1.4127
14117SOL     OW43791   6.538   2.843  10.318  0.2509 -0.5477  0.2591
14117SOL    HW143792   6.526   2.932  10.351  1.8167 -0.0116 -0.5274
14117SOL    HW243793   6.457   2.823  10.272 -0.7249 -0.1402  1.7191
14118SOL     OW43794   5.954   7.378   0.226  0.2026 -0.3978 -0.3028
14118SOL    HW143795   5.936   7.452   0.284  0.7251 -0.2699 -0.2965
14118SOL    HW243796   5.925   7.301   0.275 -1.2879 -0.1305 -0.7124
14119SOL     OW43797   3.645   7.055  10.464  0.1559  0.4582 -0.2312
14119SOL    HW143798   3.572   7.117  10.467  0.0801  0.3807 -0.4119
14119SOL    HW243799   3.690   7.075  10.381  0.1556  0.2995 -0.2701
14120SOL     OW43800   1.621   2.417   2.311  0.2901 -0.5862  0.7970
14120SOL    HW143801   1.615   2.509   2.336 -1.5090 -0.6327  0.6839
14120SOL    HW243802   1.611   2.417   2.216  0.1611 -0.8894  0.8077
14121SOL     OW43803   3.610   3.853  11.921 -0.5408 -0.2244 -0.7476
14121SOL    HW143804   3.594   3.766  11.884 -0.3374 -0.8850  0.6570
14121SOL    HW243805   3.692   3.844  11.969 -1.3660  0.2549  0.8201
14122SOL     OW43806   7.345   4.377  10.303  0.1777 -0.0536  0.1986
14122SOL    HW143807   7.367   4.416  10.218  1.7763 -1.0304  0.1309
14122SOL    HW243808   7.361   4.283  10.291 -1.1122 -0.4069  1.1214
14123SOL     OW43809   4.629   1.725   1.051  0.2131  0.1179 -0.1287
14123SOL    HW143810   4.698   1.697   1.110 -0.4727 -1.1151  0.1241
14123SOL    HW243811   4.675   1.769   0.979  1.2538 -0.6489  0.0466
14124SOL     OW43812   3.336   7.862   5.719  0.6001  0.0545 -0.0370
14124SOL    HW143813   3.405   7.920   5.686  0.2472 -0.6665 -2.1770
14124SOL    HW243814   3.292   7.829   5.641 -0.9962 -0.9600  1.2132
14125SOL     OW43815   0.054   7.715   6.360  0.1434  0.3167  0.2828
14125SOL    HW143816   0.124   7.753   6.306  0.4264  0.3350  0.6532
14125SOL    HW243817   0.051   7.771   6.437  0.6386 -0.4562  0.8866
14126SOL     OW43818   0.604   6.920   9.179 -0.3437 -0.5078 -0.0853
14126SOL    HW143819   0.511   6.898   9.177 -0.3844 -0.4265  0.5603
14126SOL    HW243820   0.618   6.955   9.267  0.2720 -0.4087 -0.2190
14127SOL     OW43821   3.243   7.301   5.011  0.2379 -0.1650  0.1641
14127SOL    HW143822   3.252   7.256   5.095 -2.3168  2.1551  1.8540
14127SOL    HW243823   3.151   7.287   4.986  0.0188  1.9554 -0.4597
14128SOL     OW43824   7.933   1.884   3.936 -0.6356  0.0981 -0.0984
14128SOL    HW143825   7.871   1.882   3.863  2.2907  1.0500 -2.8584
14128SOL    HW243826   7.925   1.972   3.972 -1.6754 -0.1847  0.4094
14129SOL     OW43827   1.290   6.244  12.046 -0.0858  0.1569  0.5931
14129SOL    HW143828   1.365   6.208  11.998  0.9224  1.9812  0.7261
14129SOL    HW243829   1.232   6.169  12.058  0.8629 -0.9309 -1.1111
14130SOL     OW43830   3.255   7.532   2.194  0.0409 -0.1733 -0.6028
14130SOL    HW143831   3.318   7.581   2.247 -0.5152 -0.2200  0.1051
14130SOL    HW243832   3.306   7.460   2.157  0.4915  0.0091 -0.3466
14131SOL     OW43833   7.529   6.230  10.732 -0.0193 -0.5221 -0.2333
14131SOL    HW143834   7.549   6.318  10.699  0.3210 -0.9429 -1.1887
14131SOL    HW243835   7.611   6.199  10.771 -0.8182  0.5990  2.6154
14132SOL     OW43836   5.948   3.889   4.205  0.3316  0.0656 -0.5842
14132SOL    HW143837   5.948   3.960   4.140 -1.0356 -0.5023 -1.2409
14132SOL    HW243838   5.958   3.809   4.153  0.7813 -0.3015  0.0586
14133SOL     OW43839   3.871   6.972   0.079  0.4549 -0.0385  0.3041
14133SOL    HW143840   3.961   6.998   0.100 -0.2164  1.8303  1.1046
14133SOL    HW243841   3.842   7.036   0.014 -0.0078 -1.2160 -0.6907
14134SOL     OW43842   7.861   2.573  10.742  0.8110 -0.0583 -0.8766
14134SOL    HW143843   7.778   2.547  10.782  0.5740  0.5935 -0.9323
14134SOL    HW243844   7.845   2.567  10.648  0.6018  0.7393 -0.8966
14135SOL     OW43845   0.624   2.796   2.890 -0.0587  0.0706  0.3214
14135SOL    HW143846   0.567   2.769   2.962 -0.4911  2.0754  0.7875
14135SOL    HW243847   0.688   2.855   2.930 -0.6439  1.6759 -0.9671
14136SOL     OW43848   4.740   1.386   4.601  0.2705 -0.6697  0.3134
14136SOL    HW143849   4.778   1.465   4.637 -0.4723 -0.4070  0.5375
14136SOL    HW243850   4.800   1.361   4.530 -0.6516  1.3742 -1.2974
14137SOL     OW43851   2.051   3.142   7.813  0.2151 -0.7843 -0.0175
14137SOL    HW143852   2.127   3.164   7.759  1.5150  0.7264  2.2521
14137SOL    HW243853   1.980   3.196   7.779  1.0210  0.1730 -0.2255
14138SOL     OW43854   6.704   0.372   4.904 -0.3551  0.6104 -0.0153
14138SOL    HW143855   6.675   0.455   4.939 -0.3606  0.2422  0.8726
14138SOL    HW243856   6.649   0.306   4.947 -0.4397  0.1512 -0.7939
14139SOL     OW43857   5.714   6.838   5.741 -0.2502  0.3793 -0.7869
14139SOL    HW143858   5.680   6.903   5.803  0.3920 -0.4460  0.4846
14139SOL    HW243859   5.640   6.781   5.723 -0.5938  0.9612 -1.2362
14140SOL     OW43860   4.961   4.656  11.744  0.2048  0.0569 -0.6722
14140SOL    HW143861   4.867   4.665  11.728  0.0626 -0.2628 -0.0521
14140SOL    HW243862   4.993   4.600  11.674  0.2174  1.3963 -1.7734
14141SOL     OW43863   3.070   2.889   1.278  0.7421  0.1568  0.1100
14141SOL    HW143864   2.983   2.862   1.249  0.3711  1.3544  0.0322
14141SOL    HW243865   3.108   2.933   1.202  1.9328 -1.4199 -0.2630
14142SOL     OW43866   2.584   1.635  11.519 -0.2788  0.1183 -0.2920
14142SOL    HW143867   2.519   1.696  11.553 -0.7772 -0.2109 -0.6254
14142SOL    HW243868   2.668   1.675  11.539 -0.2365 -1.8336  5.0064
14143SOL     OW43869   1.554   5.658   9.290 -0.9773 -0.1233 -0.1112
14143SOL    HW143870   1.540   5.569   9.258  0.5281 -0.4654  0.1408
14143SOL    HW243871   1.511   5.713   9.224 -0.1735 -0.9358 -1.3590
14144SOL     OW43872   0.431   0.407  11.239 -0.3751 -0.5546 -0.3356
14144SOL    HW143873   0.376   0.356  11.180 -1.7916 -1.0272  1.2960
14144SOL    HW243874   0.518   0.405  11.199 -1.3361 -0.5014 -2.5633
14145SOL     OW43875   7.747   7.631   1.170 -0.1049 -0.2055  0.0239
14145SOL    HW143876   7.838   7.603   1.177  0.1565  0.6360  0.1840
14145SOL    HW243877   7.695   7.557   1.202  0.5266 -0.6704 -0.0277
14146SOL     OW43878   3.827   2.681   3.566  0.7495 -0.4529 -0.0628
14146SOL    HW143879   3.847   2.756   3.622 -2.0318  0.3790 -0.0766
14146SOL    HW243880   3.908   2.667   3.516  1.5398  2.2003  0.3024
14147SOL     OW43881   5.599   4.055   3.140  0.2284 -0.1898 -0.0730
14147SOL    HW143882   5.512   4.088   3.163  0.0473 -0.4811 -0.3369
14147SOL    HW243883   5.658   4.129   3.158  0.3050 -0.8398  2.6749
14148SOL     OW43884   2.550   2.077   5.231  0.2222 -0.3749 -0.7079
14148SOL    HW143885   2.549   2.169   5.202  2.6561 -0.5213 -1.4078
14148SOL    HW243886   2.459   2.048   5.219 -0.6336  1.9412 -0.3839
14149SOL     OW43887   3.739   1.781  10.487 -0.9005  0.3332 -0.3575
14149SOL    HW143888   3.680   1.855  10.503 -1.4513  0.1100 -1.2733
14149SOL    HW243889   3.827   1.817  10.500 -1.2161  0.5391  1.5661
14150SOL     OW43890   7.735   4.433   3.880 -0.2973 -0.2407 -0.1041
14150SOL    HW143891   7.731   4.368   3.809 -1.8321  0.2515 -0.4901
14150SOL    HW243892   7.799   4.497   3.848 -0.6624 -0.2376 -0.8624
14151SOL     OW43893   5.452   7.117  11.012  0.3211 -0.1827 -0.5058
14151SOL    HW143894   5.490   7.113  11.099  1.5567 -2.8784 -1.0660
14151SOL    HW243895   5.501   7.052  10.961 -0.0300  1.5910 -3.3679
14152SOL     OW43896   1.479   5.611   1.207  0.0959 -0.0170 -0.1857
14152SOL    HW143897   1.512   5.694   1.240 -0.8698  0.4335 -0.3100
14152SOL    HW243898   1.407   5.635   1.148 -1.7847 -0.9821  1.5606
14153SOL     OW43899   7.118   4.314  11.744 -0.0236 -0.1115 -0.3104
14153SOL    HW143900   7.173   4.324  11.822 -0.0209 -3.6650  0.3352
14153SOL    HW243901   7.031   4.296  11.778 -0.9304  2.0710 -1.2880
14154SOL     OW43902   1.048   0.370  12.072  0.2950 -0.2893  0.0806
14154SOL    HW143903   1.106   0.323  12.013  0.0308 -1.0568  0.4148
14154SOL    HW243904   1.084   0.459  12.076  1.7656 -0.8878  0.7151
14155SOL     OW43905   6.483   6.367   3.290 -0.4080  0.4528  0.4614
14155SOL    HW143906   6.504   6.440   3.348 -2.5534  1.8777 -0.4280
14155SOL    HW243907   6.405   6.326   3.328 -0.9686  0.4902 -0.6064
14156SOL     OW43908   6.665   0.491   0.935  0.0848  0.2387 -0.5852
14156SOL    HW143909   6.633   0.448   1.014  0.3838  0.8380 -0.1349
14156SOL    HW243910   6.622   0.444   0.863 -0.6890  0.1166 -0.0467
14157SOL     OW43911   3.246   0.305   5.874 -0.3256  0.0017  0.1925
14157SOL    HW143912   3.341   0.300   5.858 -0.3955 -0.3798 -0.1152
14157SOL    HW243913   3.227   0.398   5.876 -0.1595  0.0705 -1.0412
14158SOL     OW43914   1.790   2.712   8.179 -0.0650  0.3812 -0.2188
14158SOL    HW143915   1.813   2.634   8.230  0.6820  0.3070 -0.6584
14158SOL    HW243916   1.779   2.681   8.090 -1.1443  0.5539 -0.1518
14159SOL     OW43917   5.254   0.792  10.459 -0.4854  0.4695 -0.5844
14159SOL    HW143918   5.299   0.791  10.374  0.2604  1.4731 -0.2172
14159SOL    HW243919   5.167   0.757  10.440 -0.6741  1.5935 -1.9924
14160SOL     OW43920   6.914   7.003   4.539  0.1326 -0.0448 -0.0435
14160SOL    HW143921   6.912   6.911   4.565 -1.1023  0.1087  0.4510
14160SOL    HW243922   6.892   7.002   4.446  1.0203 -0.3082 -0.2615
14161SOL     OW43923   6.390   5.358   9.162  0.6099 -0.3603 -0.0390
14161SOL    HW143924   6.332   5.366   9.086 -1.3948  2.6646  1.5904
14161SOL    HW243925   6.439   5.440   9.163  3.7283 -2.0930 -0.2967
14162SOL     OW43926   4.640   7.406   8.054 -0.0340 -0.1908 -0.2453
14162SOL    HW143927   4.643   7.313   8.076  0.2807  0.1832  1.5103
14162SOL    HW243928   4.548   7.423   8.033 -0.0593 -0.9285 -0.7368
14163SOL     OW43929   6.585   5.258  12.022  0.1550  0.0182 -0.4710
14163SOL    HW143930   6.581   5.290  12.112  1.5078  0.4352 -0.5373
14163SOL    HW243931   6.562   5.334  11.969  0.7836  0.1797 -0.5224
14164SOL     OW43932   7.508   7.183   8.536 -0.7231  0.0534 -0.8780
14164SOL    HW143933   7.442   7.237   8.492  0.0227  1.2412 -0.5791
14164SOL    HW243934   7.588   7.234   8.531 -0.5625  0.1492  1.6953
14165SOL     OW43935   1.534   1.023   0.664 -0.2460 -0.7226  0.2279
14165SOL    HW143936   1.443   1.043   0.687 -0.5336 -1.7225  0.0115
14165SOL    HW243937   1.527   0.955   0.597  0.6114  0.6664 -1.3589
14166SOL     OW43938   6.109   4.095   0.311 -0.2310  0.1359 -0.1943
14166SOL    HW143939   6.105   4.168   0.249 -0.3447  0.1467 -0.1734
14166SOL    HW243940   6.066   4.128   0.390 -0.0397  0.1415 -0.0900
14167SOL     OW43941   5.051   0.154   1.398 -0.2279  0.2812  0.4882
14167SOL    HW143942   5.083   0.218   1.461 -0.5670 -0.5068  1.4897
14167SOL    HW243943   4.972   0.118   1.438  0.1255 -0.9888  0.1054
14168SOL     OW43944   6.138   2.067   5.438  0.7867  0.1879 -0.5319
14168SOL    HW143945   6.163   2.059   5.346 -0.4222  0.4306 -0.9020
14168SOL    HW243946   6.043   2.077   5.437  0.5973 -0.9871  0.8159
14169SOL     OW43947   0.170   4.820   3.219  0.0248 -0.0295  0.6692
14169SOL    HW143948   0.095   4.784   3.173 -0.2002 -0.0955  1.0786
14169SOL    HW243949   0.222   4.864   3.151 -0.8403  0.7977  0.5210
14170SOL     OW43950   7.865   4.221   7.027  0.1059 -0.0203  0.2022
14170SOL    HW143951   7.958   4.244   7.018 -0.0228  0.1420 -0.9264
14170SOL    HW243952   7.834   4.213   6.936 -1.4508  1.7911  0.5137
14171SOL     OW43953   2.237   5.742   4.548  0.0641  0.2443 -0.2572
14171SOL    HW143954   2.287   5.766   4.626 -0.1265  1.8792 -0.6064
14171SOL    HW243955   2.226   5.824   4.500  0.2080 -0.7190 -2.0332
14172SOL     OW43956   5.768   4.251   3.150  0.0192  0.5700 -0.1977
14172SOL    HW143957   5.766   4.266   3.244 -0.4797  0.2467 -0.1550
14172SOL    HW243958   5.859   4.268   3.125  0.0847  0.9560  0.2897
14173SOL     OW43959   0.942   5.899  12.101  0.0861 -0.0804 -0.1489
14173SOL    HW143960   0.914   5.833  12.164 -1.5427 -0.3805 -1.1246
14173SOL    HW243961   0.924   5.860  12.015  1.1213  0.7901 -0.7848
14174SOL     OW43962   2.997   0.879   9.426  0.4518  0.2749  0.2354
14174SOL    HW143963   3.044   0.821   9.486 -0.9205  0.0921  1.1638
14174SOL    HW243964   2.961   0.820   9.360  0.7734  0.3189  0.0168
14175SOL     OW43965   4.134   6.662  11.421 -0.5213  0.5490  0.3674
14175SOL    HW143966   4.088   6.731  11.372 -1.5428  0.6995  1.4865
14175SOL    HW243967   4.141   6.589  11.360  1.4164  1.9183 -1.1653
14176SOL     OW43968   6.251   5.978  10.184  0.0168  0.0292 -0.3487
14176SOL    HW143969   6.197   5.992  10.262  1.2246  2.7654  0.0979
14176SOL    HW243970   6.203   6.023  10.114 -0.0889 -0.7491 -0.7928
14177SOL     OW43971   7.357   4.228  11.608 -0.2127  0.0162 -0.2783
14177SOL    HW143972   7.376   4.142  11.572 -2.0313  0.5487 -2.7866
14177SOL    HW243973   7.275   4.217  11.657 -0.0231  0.1678  0.0784
14178SOL     OW43974   5.470   1.930   6.709 -0.4590 -0.0812  0.0195
14178SOL    HW143975   5.545   1.986   6.728 -0.4184 -0.6337  1.6466
14178SOL    HW243976   5.464   1.929   6.613  0.5274  1.3668 -0.0870
14179SOL     OW43977   1.209   5.441   1.396  0.1821 -0.5116  0.6030
14179SOL    HW143978   1.119   5.467   1.412  0.2227  0.0840 -0.1146
14179SOL    HW243979   1.212   5.420   1.302  0.5180 -1.6341  0.8453
14180SOL     OW43980   6.529   5.016   0.313  0.1533  0.0497  0.1944
14180SOL    HW143981   6.457   4.964   0.348  0.4339 -0.8121 -0.4741
14180SOL    HW243982   6.491   5.065   0.240 -0.1953  1.0860  1.0430
14181SOL     OW43983   4.586   2.589  11.555  0.6513 -0.4907 -0.3067
14181SOL    HW143984   4.651   2.542  11.605  0.8282  0.1427  0.0726
14181SOL    HW243985   4.631   2.614  11.474  2.0941  2.9983  1.3679
14182SOL     OW43986   4.970   0.734  10.580 -0.2256  0.9902  0.0390
14182SOL    HW143987   4.932   0.735  10.668  0.0984  0.6200  0.1870
14182SOL    HW243988   4.995   0.825  10.563  0.1616  0.9799  0.5291
14183SOL     OW43989   1.166   4.917  11.125 -0.2165 -0.0421 -0.1759
14183SOL    HW143990   1.146   4.915  11.219  0.1355 -0.5481 -0.1040
14183SOL    HW243991   1.135   5.002  11.095  0.9834  0.7221  0.6910
14184SOL     OW43992   7.123   7.614   1.520  0.0849 -0.2473  0.6400
14184SOL    HW143993   7.110   7.662   1.601  1.1023  0.3082  0.5002
14184SOL    HW243994   7.200   7.655   1.480 -0.5745 -0.2846 -0.7617
14185SOL     OW43995   0.439   4.488   7.393  0.5351  0.2375 -0.4510
14185SOL    HW143996   0.499   4.419   7.367  0.2683 -0.4112  0.5806
14185SOL    HW243997   0.352   4.447   7.389  0.3659  0.5290  0.0848
14186SOL     OW43998   6.251   0.985   6.973  0.3373 -0.2398  0.2510
14186SOL    HW143999   6.224   0.905   7.018  0.0577  0.4461  1.3563
14186SOL    HW244000   6.182   1.048   6.994 -0.1694 -0.0606 -1.7327
14187SOL     OW44001   3.425   6.820   1.425  0.6191  0.0937  0.0422
14187SOL    HW144002   3.443   6.893   1.485  2.4834 -0.7304  0.5270
14187SOL    HW244003   3.493   6.756   1.443  0.3359 -0.8348 -1.9284
14188SOL     OW44004   0.064   3.885   5.448 -0.4297  0.1690  0.0311
14188SOL    HW144005   0.025   3.943   5.384 -1.5615 -0.9982 -0.3806
14188SOL    HW244006   0.052   3.797   5.412 -2.0240 -0.6141  2.2621
14189SOL     OW44007   5.561   4.895   3.753 -0.4848 -0.6160  0.2161
14189SOL    HW144008   5.645   4.853   3.734 -0.2748 -0.5569  0.9929
14189SOL    HW244009   5.496   4.833   3.720 -0.1616 -1.1612  0.5888
14190SOL     OW44010   6.649   7.187  10.495  0.0986 -0.1050  0.2140
14190SOL    HW144011   6.705   7.263  10.479  0.9254 -0.4941  1.1328
14190SOL    HW244012   6.596   7.212  10.571  0.5455 -0.5163  0.6738
14191SOL     OW44013   6.657   3.376   8.252  0.2409  0.0837  0.2976
14191SOL    HW144014   6.663   3.287   8.287  1.8998  0.4152  0.9321
14191SOL    HW244015   6.690   3.369   8.162  0.9208  0.1471  0.5372
14192SOL     OW44016   4.239   4.166   5.664  0.2983 -0.0445  0.2734
14192SOL    HW144017   4.160   4.114   5.674  0.2878  0.0112  0.4752
14192SOL    HW244018   4.273   4.177   5.752  0.2119  0.4245  0.2533
14193SOL     OW44019   2.018   3.678   8.315  0.0877  0.3080  0.3151
14193SOL    HW144020   2.072   3.602   8.295  0.0759  0.3208  0.2350
14193SOL    HW244021   2.081   3.747   8.338  0.0913  0.2159  0.5893
14194SOL     OW44022   2.724   5.341   6.411  0.3979  0.0918  0.1577
14194SOL    HW144023   2.813   5.355   6.445  1.0936 -0.4624 -1.3398
14194SOL    HW244024   2.713   5.246   6.411  0.9601 -0.0468 -2.3210
14195SOL     OW44025   7.597   6.505   8.191  0.3769 -0.0105  0.4562
14195SOL    HW144026   7.528   6.565   8.218  0.7896  1.6485 -1.8388
14195SOL    HW244027   7.660   6.506   8.262 -0.3127  1.1757  1.0801
14196SOL     OW44028   3.969   4.039  10.135  0.1219  0.1623  0.2193
14196SOL    HW144029   4.062   4.026  10.120  0.5788  2.1641  0.8878
14196SOL    HW244030   3.926   3.986  10.069  1.7982  1.1499 -1.8050
14197SOL     OW44031   7.001   6.494   7.272 -0.2818  0.4171 -0.0447
14197SOL    HW144032   7.045   6.502   7.187 -1.3555  0.5424 -0.6055
14197SOL    HW244033   6.934   6.562   7.270 -0.2635  0.4694  0.9480
14198SOL     OW44034   4.100   6.828   1.175 -0.2149 -0.1013 -0.7308
14198SOL    HW144035   4.018   6.817   1.126 -0.5331 -1.4381  0.0505
14198SOL    HW244036   4.133   6.739   1.186  0.5481  0.2924  0.2910
14199SOL     OW44037   7.549   1.359   2.875 -0.5285 -0.2196 -0.1590
14199SOL    HW144038   7.554   1.444   2.919  0.5016 -0.1478 -0.3911
14199SOL    HW244039   7.637   1.345   2.840 -0.8240 -1.1556 -0.5523
14200SOL     OW44040   3.937   3.017  10.961  0.9723  0.1287 -0.2388
14200SOL    HW144041   3.891   3.033  10.879  0.4169  2.3290  0.4344
14200SOL    HW244042   3.890   2.944  11.001  0.8002 -0.4861 -1.5174
14201SOL     OW44043   5.868   4.623   9.357 -0.2770 -0.3933  0.3307
14201SOL    HW144044   5.921   4.544   9.355 -0.2608 -0.3769 -0.5433
14201SOL    HW244045   5.925   4.690   9.394  1.0637  0.1021 -2.3238
14202SOL     OW44046   4.759   7.724   2.612  0.3885 -0.2014  0.3478
14202SOL    HW144047   4.760   7.766   2.698 -0.0148  2.6566 -0.9345
14202SOL    HW244048   4.819   7.650   2.621  4.3764  2.7970  1.8699
14203SOL     OW44049   7.548   7.205   4.848  0.3141  0.3738  0.5329
14203SOL    HW144050   7.483   7.180   4.914  0.7608  0.8816  1.1777
14203SOL    HW244051   7.520   7.292   4.819 -0.9219 -0.5688 -1.2999
14204SOL     OW44052   6.149   2.933   5.580  0.4705  0.1449 -0.0410
14204SOL    HW144053   6.108   2.982   5.509  1.3085  0.7641 -0.1037
14204SOL    HW244054   6.233   2.904   5.545  0.0760 -1.2037  0.0525
14205SOL     OW44055   5.048   0.674  10.306 -0.1550  0.1024  0.3281
14205SOL    HW144056   4.999   0.651  10.385 -0.6757  0.2745  0.0689
14205SOL    HW244057   5.042   0.596  10.251  0.1140  0.0206  0.4161
14206SOL     OW44058   1.274   5.496   0.142 -0.3190 -0.0526  0.1306
14206SOL    HW144059   1.260   5.421   0.200 -0.9034  0.3532  0.5284
14206SOL    HW244060   1.231   5.569   0.186 -1.6608  0.0705 -1.2676
14207SOL     OW44061   4.995   0.691   2.247 -0.1706  0.0833  0.2468
14207SOL    HW144062   5.061   0.675   2.315  0.2980  1.0761  0.0383
14207SOL    HW244063   4.938   0.759   2.284 -1.2767 -0.9689  0.5456
14208SOL     OW44064   3.356   7.683   3.001 -0.3371 -0.3251  0.6427
14208SOL    HW144065   3.399   7.632   2.932 -2.0727  0.4893 -1.1365
14208SOL    HW244066   3.348   7.771   2.964 -1.6377  0.0462  1.7350
14209SOL     OW44067   7.775   4.781   5.785  0.1064 -0.0856  0.0134
14209SOL    HW144068   7.845   4.761   5.847  1.3711  1.8291 -0.7055
14209SOL    HW244069   7.788   4.873   5.763 -2.0769  0.0639 -0.9018
14210SOL     OW44070   2.601   7.895  11.319  0.6364 -0.1278  0.3156
14210SOL    HW144071   2.541   7.915  11.247  0.9798 -0.7483 -0.1404
14210SOL    HW244072   2.544   7.897  11.397  0.2079  0.2376  0.0029
14211SOL     OW44073   5.542   2.589   9.162 -0.2819 -0.1896 -0.4515
14211SOL    HW144074   5.577   2.550   9.082 -0.5098  0.2302 -0.7642
14211SOL    HW244075   5.549   2.684   9.147  1.2558 -0.0706  0.7132
14212SOL     OW44076   0.232   2.401   1.861 -0.1793  0.5029  0.1693
14212SOL    HW144077   0.206   2.309   1.855 -0.7045  0.7026 -0.9562
14212SOL    HW244078   0.224   2.422   1.954 -1.1376 -0.2799  0.2833
14213SOL     OW44079   7.311   5.772  11.615  0.1252  0.0333  0.0254
14213SOL    HW144080   7.227   5.815  11.630 -0.1549  0.4597 -2.4055
14213SOL    HW244081   7.371   5.844  11.591 -0.2459 -0.6925 -3.6673
14214SOL     OW44082   3.043   2.848  11.426  0.2094  0.1968  0.1011
14214SOL    HW144083   3.044   2.916  11.358  0.5597 -0.1153 -0.2178
14214SOL    HW244084   3.061   2.767  11.378 -1.6700 -0.3436  0.2608
14215SOL     OW44085   7.664   1.177  11.965 -0.2022  0.3685  0.0880
14215SOL    HW144086   7.686   1.202  11.875  1.2828  0.1545  0.3692
14215SOL    HW244087   7.653   1.260  12.011  2.2839  0.5643  0.4446
14216SOL     OW44088   7.286   4.876   1.181 -0.5097 -0.3805  0.2137
14216SOL    HW144089   7.192   4.877   1.199 -0.7535  1.5335 -0.9102
14216SOL    HW244090   7.325   4.910   1.262 -1.1166  2.2111 -0.4841
14217SOL     OW44091   5.167   4.365  11.613  0.2771 -0.2307 -0.1112
14217SOL    HW144092   5.251   4.396  11.647 -0.3158  0.2868  0.9227
14217SOL    HW244093   5.185   4.276  11.582  1.1934 -0.1336  0.1198
14218SOL     OW44094   0.551   4.499   7.786 -0.4512 -0.0505  0.4246
14218SOL    HW144095   0.541   4.406   7.762 -2.3282  0.0670  0.6147
14218SOL    HW244096   0.526   4.502   7.878 -0.6103  0.6720  0.3599
14219SOL     OW44097   5.629   5.703   0.306 -0.1585  0.0197 -0.0921
14219SOL    HW144098   5.721   5.678   0.299 -0.8420 -3.2792  0.9790
14219SOL    HW244099   5.617   5.723   0.399 -0.6567 -0.2462 -0.0969
14220SOL     OW44100   6.850   5.441   5.747 -0.3482  0.3180 -0.0944
14220SOL    HW144101   6.874   5.374   5.811  1.7803  1.5702  0.5135
14220SOL    HW244102   6.800   5.394   5.681  0.6560 -1.7881  0.5492
14221SOL     OW44103   2.268   5.606   5.998 -0.0859 -0.8816 -0.2757
14221SOL    HW144104   2.227   5.544   6.058 -1.6623 -0.0893 -0.4748
14221SOL    HW244105   2.237   5.581   5.912  0.3563 -0.6441 -0.5076
14222SOL     OW44106   4.442   3.176   2.351 -0.1434  0.1527 -0.1157
14222SOL    HW144107   4.396   3.257   2.329  0.4868  1.0479  1.7019
14222SOL    HW244108   4.396   3.141   2.428  1.0170  0.0523  0.5608
14223SOL     OW44109   7.945   2.523   3.112  0.1712  0.0528  0.3362
14223SOL    HW144110   7.944   2.433   3.077  1.0569  0.5868 -1.1790
14223SOL    HW244111   8.038   2.545   3.116 -0.0560  2.0067 -2.4583
14224SOL     OW44112   3.475   1.301   2.798  0.2636  0.4934  0.8565
14224SOL    HW144113   3.439   1.221   2.836 -0.9775  1.3516  1.5501
14224SOL    HW244114   3.399   1.352   2.771  1.0520  0.6659 -1.3145
14225SOL     OW44115   4.284   1.030   3.441 -0.0942 -0.5863 -0.0007
14225SOL    HW144116   4.355   1.073   3.490 -1.4262  0.9171  0.7001
14225SOL    HW244117   4.273   0.946   3.485  0.5084 -0.3762  0.5772
14226SOL     OW44118   6.684   1.767   8.224 -0.5010 -0.1388  0.7812
14226SOL    HW144119   6.624   1.837   8.250 -1.4313 -1.0286  1.0995
14226SOL    HW244120   6.658   1.745   8.135  1.6714  1.8408 -0.4497
14227SOL     OW44121   6.104   6.320   0.156 -0.3173  0.4174 -0.3812
14227SOL    HW144122   6.066   6.394   0.203  1.4013  0.6723  0.6810
14227SOL    HW244123   6.191   6.309   0.194  1.4219  0.9538 -3.8529
14228SOL     OW44124   5.968   7.685   1.771  0.2450 -0.0516  0.0937
14228SOL    HW144125   6.015   7.755   1.727  0.7719 -0.0309  0.6637
14228SOL    HW244126   6.029   7.611   1.769 -0.8427 -0.9496 -1.7410
14229SOL     OW44127   5.842   7.192   0.804  0.1142  0.1741 -0.5861
14229SOL    HW144128   5.924   7.149   0.828 -0.9348 -2.8385 -1.9203
14229SOL    HW244129   5.778   7.157   0.865 -0.2455  2.5332  0.4733
14230SOL     OW44130   6.505   2.723   9.290 -0.2335 -0.3568 -0.2959
14230SOL    HW144131   6.473   2.757   9.206 -0.2556 -0.7043 -0.4302
14230SOL    HW244132   6.442   2.654   9.313  0.4151 -1.0423 -0.5595
14231SOL     OW44133   1.762   5.346  11.166  0.4952 -0.3489  0.0302
14231SOL    HW144134   1.743   5.253  11.170  0.1807 -0.2459  1.2414
14231SOL    HW244135   1.776   5.372  11.257 -0.6525  1.0423 -0.1500
14232SOL     OW44136   2.767   5.783  10.370  0.0743  0.3214  0.0287
14232SOL    HW144137   2.776   5.688  10.376  1.0557  0.4813  2.0620
14232SOL    HW244138   2.815   5.806  10.290 -0.9621 -0.9483 -0.9973
14233SOL     OW44139   1.128   3.866   2.150 -0.0810  0.0520 -0.7383
14233SOL    HW144140   1.162   3.954   2.166  0.5025 -0.2510 -0.2304
14233SOL    HW244141   1.095   3.869   2.060  1.8882  0.2119 -1.5174
14234SOL     OW44142   4.210   0.117   2.153 -0.1028 -0.2459  0.1949
14234SOL    HW144143   4.248   0.056   2.216 -0.1502  0.1119  0.5731
14234SOL    HW244144   4.249   0.093   2.069  3.0046  1.7363  0.9092
14235SOL     OW44145   3.664   2.286   9.656  0.1309  0.8222  0.6132
14235SOL    HW144146   3.586   2.260   9.705 -0.7434 -0.1357 -1.1573
14235SOL    HW244147   3.629   2.336   9.581  1.0105 -1.0783 -1.1627
14236SOL     OW44148   3.566   0.572   7.912 -0.2885  0.2285 -0.4373
14236SOL    HW144149   3.535   0.509   7.977 -1.1474 -0.0038 -1.0499
14236SOL    HW244150   3.525   0.655   7.937  0.7396  0.5349  0.2945
14237SOL     OW44151   7.697   1.234   6.025 -0.3871 -0.6783  0.3989
14237SOL    HW144152   7.786   1.258   5.998 -1.0385 -0.2600 -1.5930
14237SOL    HW244153   7.696   1.138   6.024  0.2818 -0.7038  1.3652
14238SOL     OW44154   2.548   0.868  10.522  0.2287  0.2833 -0.7405
14238SOL    HW144155   2.616   0.800  10.524 -1.0878 -1.0847 -0.0250
14238SOL    HW244156   2.467   0.820  10.503 -0.5816  1.8451 -1.4618
14239SOL     OW44157   3.071   5.035   3.438  0.4070 -0.2995 -0.7735
14239SOL    HW144158   3.096   5.040   3.530  1.1312 -0.0433 -0.9768
14239SOL    HW244159   3.071   4.942   3.417  2.2054 -0.2771 -1.0239
14240SOL     OW44160   6.552   3.249  12.328 -0.2261  0.3158 -0.5020
14240SOL    HW144161   6.558   3.183  12.398  0.4666 -0.7837 -1.5589
14240SOL    HW244162   6.492   3.315  12.362 -0.2347 -0.4055  0.9586
14241SOL     OW44163   2.460   3.451   4.071 -0.1974  0.4452 -0.5124
14241SOL    HW144164   2.485   3.523   4.013  0.4859 -1.7212 -3.1113
14241SOL    HW244165   2.539   3.434   4.124  1.4064 -1.3035 -3.2137
14242SOL     OW44166   0.306   7.610   7.961  0.2056  0.7100  1.0012
14242SOL    HW144167   0.401   7.604   7.964  0.2990 -1.2202 -1.6771
14242SOL    HW244168   0.275   7.533   8.009  0.2664 -1.2167 -1.7629
14243SOL     OW44169   0.313   4.578   9.251 -0.1853  0.7079  0.6476
14243SOL    HW144170   0.265   4.501   9.221 -0.5108  1.3574 -0.5643
14243SOL    HW244171   0.317   4.569   9.346 -0.1261 -0.8499  0.5130
14244SOL     OW44172   5.636   1.047   4.493  0.1426 -0.7644 -0.1764
14244SOL    HW144173   5.572   1.069   4.425 -0.8660 -0.2858  0.8943
14244SOL    HW244174   5.681   1.129   4.511  0.5384 -0.9331 -0.3900
14245SOL     OW44175   2.679   0.925   7.002  0.2038 -0.2233 -0.1142
14245SOL    HW144176   2.736   1.002   6.996 -1.5982  1.2386  0.5593
14245SOL    HW244177   2.689   0.896   7.093 -1.1428  0.9221  0.4369
14246SOL     OW44178   4.630   0.163   1.898  0.1582 -0.2231 -0.4961
14246SOL    HW144179   4.575   0.188   1.824 -0.8151  2.8709  1.0990
14246SOL    HW244180   4.698   0.229   1.902  0.5575 -0.6832  0.9788
14247SOL     OW44181   7.897   4.715   1.967 -0.4919  0.4466 -0.4889
14247SOL    HW144182   7.900   4.756   1.880 -1.4834 -0.1085 -0.7907
14247SOL    HW244183   7.879   4.623   1.950 -3.4354  0.7726  0.3992
14248SOL     OW44184   4.957   1.440  12.456 -0.4924  0.1702 -0.1655
14248SOL    HW144185   4.902   1.371  12.418  1.1484 -1.5018  0.3496
14248SOL    HW244186   4.987   1.403  12.539  0.5586  1.4569  0.0509
14249SOL     OW44187   4.582   4.141   2.114 -0.5636 -0.2059  0.2362
14249SOL    HW144188   4.542   4.059   2.083  0.3592 -1.3871  2.0242
14249SOL    HW244189   4.667   4.114   2.150  0.6806  1.8447 -0.9520
14250SOL     OW44190   3.359   6.511   2.532 -0.2312 -0.4880  0.3054
14250SOL    HW144191   3.362   6.432   2.477  0.0970  1.0537 -2.0565
14250SOL    HW244192   3.450   6.534   2.546 -0.3271 -0.5382  1.0485
14251SOL     OW44193   3.522   7.290   7.634  0.1083 -0.2843 -0.3793
14251SOL    HW144194   3.614   7.268   7.620 -0.3303 -3.2425  0.7456
14251SOL    HW244195   3.481   7.278   7.548  0.4684 -0.7428 -0.4923
14252SOL     OW44196   3.292   5.586   6.132  0.2548  0.3527  0.1465
14252SOL    HW144197   3.383   5.611   6.118 -0.0006  0.6287 -1.0864
14252SOL    HW244198   3.241   5.655   6.091 -0.5283  0.3338  1.0528
14253SOL     OW44199   4.733   5.981   6.010 -0.4069 -0.1425  0.3439
14253SOL    HW144200   4.697   5.895   5.986 -1.7805  0.8778 -1.6044
14253SOL    HW244201   4.811   5.990   5.955 -0.9418  0.3101 -0.3635
14254SOL     OW44202   1.984   7.895   1.255 -1.0232 -0.2172 -0.0808
14254SOL    HW144203   2.001   7.936   1.170 -0.8200  2.0455  0.9749
14254SOL    HW244204   2.043   7.820   1.258  2.3511  2.2141 -0.1646
14255SOL     OW44205   7.442   2.845   2.439 -0.3907  0.9253  0.5423
14255SOL    HW144206   7.522   2.879   2.479  0.3355  1.0052 -0.9176
14255SOL    HW244207   7.379   2.918   2.445  0.4443  1.7649 -0.5179
14256SOL     OW44208   7.956   2.893  11.154 -0.7287  0.1669  0.4196
14256SOL    HW144209   8.048   2.913  11.140 -1.0837  2.4197  0.9029
14256SOL    HW244210   7.956   2.816  11.211  0.8467  0.5714  1.0032
14257SOL     OW44211   3.303   7.859   7.078  0.0269 -0.3203  0.3087
14257SOL    HW144212   3.391   7.835   7.049  0.8041  1.9632  0.5901
14257SOL    HW244213   3.296   7.820   7.166  1.2651  0.4690  0.7916
14258SOL     OW44214   4.650   7.339   9.972 -0.2819  0.0307  0.0633
14258SOL    HW144215   4.699   7.400  10.026  1.1409 -0.2775 -0.8249
14258SOL    HW244216   4.605   7.395   9.908 -0.6176  0.2737  0.5060
14259SOL     OW44217   2.876   2.770  10.436  0.2884 -0.1510  0.5033
14259SOL    HW144218   2.797   2.767  10.491 -0.0502 -1.3922 -0.0323
14259SOL    HW244219   2.920   2.851  10.462 -1.8112  1.2676 -0.0616
14260SOL     OW44220   5.304   1.178   9.296 -0.0648 -0.1769 -0.1698
14260SOL    HW144221   5.360   1.139   9.364 -0.6169 -0.3165  0.2189
14260SOL    HW244222   5.217   1.143   9.315 -0.2549 -0.0866 -0.8588
14261SOL     OW44223   1.723   3.137   1.079 -0.4368  0.8622 -0.8148
14261SOL    HW144224   1.799   3.192   1.098  0.7155 -0.8492 -0.2681
14261SOL    HW244225   1.681   3.123   1.163 -2.7095  3.5524 -1.3651
14262SOL     OW44226   4.789   6.306   7.328 -0.4161 -0.0372 -0.2126
14262SOL    HW144227   4.702   6.321   7.292 -1.5613 -1.1883  1.8465
14262SOL    HW244228   4.803   6.212   7.319 -0.1365 -0.1280  0.9705
14263SOL     OW44229   4.393   0.288   5.048  0.1302 -0.2510  0.4768
14263SOL    HW144230   4.450   0.240   5.108  0.8277  0.3031  0.2670
14263SOL    HW244231   4.306   0.282   5.087 -0.3617 -3.9262 -0.7981
14264SOL     OW44232   3.862   3.795   6.815  0.2698  0.0366  0.3062
14264SOL    HW144233   3.856   3.716   6.762  0.0022  0.7302 -0.7394
14264SOL    HW244234   3.950   3.830   6.798 -0.8668  1.9673 -2.2906
14265SOL     OW44235   6.160   2.803   2.540  0.1294  0.8403  0.3409
14265SOL    HW144236   6.160   2.734   2.607 -0.5767  2.5981  2.2600
14265SOL    HW244237   6.086   2.781   2.483 -0.9427  0.6921  1.7244
14266SOL     OW44238   1.444   6.239  10.801  0.8844 -0.1629  0.5478
14266SOL    HW144239   1.436   6.325  10.761  1.7664 -0.5122 -0.4367
14266SOL    HW244240   1.356   6.217  10.829  0.3096  0.3085 -0.7979
14267SOL     OW44241   2.630   0.027   1.151 -0.0484 -0.2314  0.3222
14267SOL    HW144242   2.714   0.009   1.193 -0.2522  1.0573  1.2962
14267SOL    HW244243   2.650   0.023   1.057  0.8829 -0.9022  0.5331
14268SOL     OW44244   1.732   6.879   5.666  0.2519  0.7441 -0.1235
14268SOL    HW144245   1.689   6.897   5.750 -0.3441 -1.6255  0.1532
14268SOL    HW244246   1.808   6.826   5.689  1.6378  2.3084 -0.9004
14269SOL     OW44247   4.553   5.832   0.566  0.7497 -0.5947  0.1346
14269SOL    HW144248   4.462   5.832   0.597  0.8359  0.0244  0.4183
14269SOL    HW244249   4.597   5.894   0.625  0.8963  0.7470 -1.3147
14270SOL     OW44250   2.658   1.657   1.273 -0.2257  0.2971 -0.0253
14270SOL    HW144251   2.752   1.655   1.287 -0.2473 -0.0603  0.0636
14270SOL    HW244252   2.623   1.587   1.328 -0.5317  0.3533 -0.1436
14271SOL     OW44253   3.715   1.049   8.818 -0.5333 -0.7305  0.1256
14271SOL    HW144254   3.736   0.987   8.749 -0.0522  0.0220 -0.4212
14271SOL    HW244255   3.655   1.002   8.876 -0.6160 -1.5043 -0.5808
14272SOL     OW44256   3.250   3.973   4.229  0.0320 -0.0868 -0.4019
14272SOL    HW144257   3.258   3.883   4.198 -0.0947  0.2199 -1.3625
14272SOL    HW244258   3.267   4.027   4.152  1.4877  0.7540  0.4559
14273SOL     OW44259   0.819   4.657   1.876  0.1693  0.0784 -0.5567
14273SOL    HW144260   0.765   4.600   1.931  0.4121 -0.7202 -1.1237
14273SOL    HW244261   0.757   4.719   1.837 -0.0672  0.3531  0.2365
14274SOL     OW44262   5.832   5.378   9.403  0.6292  0.7676 -0.2849
14274SOL    HW144263   5.888   5.454   9.392 -1.7811  2.9399  1.4617
14274SOL    HW244264   5.791   5.389   9.489 -1.2842 -1.4664 -0.7940
14275SOL     OW44265   1.397   4.557  11.241  0.6835 -0.3055 -0.3415
14275SOL    HW144266   1.353   4.583  11.321  0.3515 -0.4045 -0.4882
14275SOL    HW244267   1.476   4.610  11.238  1.1524 -0.9343  0.4953
14276SOL     OW44268   1.353   0.586   4.908  0.0996  0.0489 -0.3643
14276SOL    HW144269   1.327   0.659   4.851 -0.6921 -0.9854 -1.3647
14276SOL    HW244270   1.408   0.627   4.975 -0.8052  1.6659 -0.5463
14277SOL     OW44271   1.940   5.333   1.628  0.1091  0.1567  0.2456
14277SOL    HW144272   2.002   5.331   1.701 -1.8855 -0.0466  2.0433
14277SOL    HW244273   1.881   5.406   1.648  0.6506  1.3602 -2.2315
14278SOL     OW44274   6.508   0.392   7.262  0.8057  0.3625 -0.4463
14278SOL    HW144275   6.589   0.444   7.260 -0.2825  2.1267 -1.7646
14278SOL    HW244276   6.439   0.454   7.238 -1.1693 -0.7753  1.8389
14279SOL     OW44277   3.363   5.034  11.661 -0.2756 -0.2606  0.3840
14279SOL    HW144278   3.404   5.015  11.746  1.1928 -0.6839 -0.3949
14279SOL    HW244279   3.353   5.129  11.660  0.0714 -0.2121  0.8721
14280SOL     OW44280   3.573   5.089  12.178 -0.2644  0.3665  0.1007
14280SOL    HW144281   3.561   5.048  12.264  0.0248 -0.0855 -0.0694
14280SOL    HW244282   3.484   5.107  12.148 -0.4290 -0.5318 -0.0001
14281SOL     OW44283   7.834   4.196   1.279  0.0898 -0.3891  0.5695
14281SOL    HW144284   7.770   4.250   1.327  1.0022  0.5535  0.7818
14281SOL    HW244285   7.917   4.213   1.325  0.9746  0.4616 -1.2566
14282SOL     OW44286   7.339   0.899   7.447  0.0868 -0.3450 -0.2669
14282SOL    HW144287   7.291   0.972   7.486  0.3653 -0.1821 -0.2325
14282SOL    HW244288   7.288   0.822   7.471  0.3870 -0.2708  0.6394
14283SOL     OW44289   3.994   4.198   3.591  0.3318  0.4470  0.1171
14283SOL    HW144290   3.909   4.199   3.635  0.9861  0.8611  1.4021
14283SOL    HW244291   4.046   4.134   3.639  0.8323  0.3665 -0.5114
14284SOL     OW44292   5.122   7.573  11.006 -0.0215  0.1500  0.2911
14284SOL    HW144293   5.217   7.561  11.012 -0.0315 -0.1795 -0.1518
14284SOL    HW244294   5.090   7.488  10.975 -0.3272  0.6408 -0.7684
14285SOL     OW44295   3.994   2.702   8.356  0.0943 -0.4595 -0.0373
14285SOL    HW144296   4.035   2.789   8.351  2.2278 -1.4532 -1.1772
14285SOL    HW244297   3.912   2.712   8.308  0.6672  0.7478 -0.8248
14286SOL     OW44298   6.436   4.988  10.246 -0.0824 -0.1890 -0.3792
14286SOL    HW144299   6.342   4.978  10.262  0.3300 -1.0582  1.6661
14286SOL    HW244300   6.448   5.083  10.239 -0.7667  0.1051  1.7986
14287SOL     OW44301   7.937   1.961   5.641  0.0514  0.0377  0.2211
14287SOL    HW144302   7.973   1.965   5.730  0.7842 -3.2900  0.1946
14287SOL    HW244303   8.014   1.975   5.585  0.2199 -1.1130  0.1495
14288SOL     OW44304   4.932   1.555   0.719 -1.0877 -0.4238  0.0358
14288SOL    HW144305   4.924   1.540   0.813 -1.8494  1.5762  0.3212
14288SOL    HW244306   5.025   1.539   0.700 -0.6466  0.3850  1.3688
14289SOL     OW44307   0.800   7.689   6.938 -0.2041 -0.4197  0.0616
14289SOL    HW144308   0.706   7.671   6.938 -0.3883  0.4141  1.1625
14289SOL    HW244309   0.807   7.780   6.966  0.8886 -0.0672 -1.2772
14290SOL     OW44310   0.885   6.489   6.326 -0.0132 -0.4272  0.4225
14290SOL    HW144311   0.920   6.573   6.299 -1.1465 -0.4914 -1.4264
14290SOL    HW244312   0.881   6.494   6.422  2.8382  0.3871  0.5870
14291SOL     OW44313   0.916   4.207   1.084  0.7955  0.0930  0.0361
14291SOL    HW144314   0.898   4.138   1.147 -0.0579  0.0691 -0.2264
14291SOL    HW244315   1.009   4.196   1.062  0.9297 -0.3099  0.7737
14292SOL     OW44316   1.578   2.920   1.829  0.1477 -0.5244  0.1331
14292SOL    HW144317   1.482   2.923   1.832  0.1780  1.8926  1.8070
14292SOL    HW244318   1.602   2.991   1.770  0.9696 -1.8441 -1.2028
14293SOL     OW44319   2.164   7.176   5.930 -0.4764  0.1693 -0.1125
14293SOL    HW144320   2.188   7.223   6.010 -1.3038  0.2385  0.1032
14293SOL    HW244321   2.069   7.165   5.936 -0.4281 -0.6251 -0.6563
14294SOL     OW44322   1.286   0.203   7.734  0.1965  0.3822  0.1914
14294SOL    HW144323   1.364   0.148   7.734  0.5960  0.6239 -4.3398
14294SOL    HW244324   1.217   0.147   7.770  1.9468 -0.5261  2.3341
14295SOL     OW44325   3.426   5.185   9.540 -0.2414  0.4650 -0.0447
14295SOL    HW144326   3.439   5.110   9.482 -0.6443  0.7866 -0.5559
14295SOL    HW244327   3.409   5.147   9.625  1.0378 -0.0126  0.0252
14296SOL     OW44328   4.394   0.238   0.305  0.1329 -0.3302 -0.5426
14296SOL    HW144329   4.382   0.326   0.267 -2.1083 -0.5476 -0.4584
14296SOL    HW244330   4.432   0.187   0.233  0.3555  0.4128 -0.9715
14297SOL     OW44331   4.949   0.268  10.963 -0.3855  0.4031  0.7004
14297SOL    HW144332   4.933   0.176  10.982 -1.0437  0.3906  0.1559
14297SOL    HW244333   5.041   0.273  10.940 -0.0122  0.1215  2.0699
14298SOL     OW44334   4.164   7.128   1.577 -0.5732 -0.4989 -0.7175
14298SOL    HW144335   4.119   7.069   1.516  0.4459 -1.2864 -0.7349
14298SOL    HW244336   4.114   7.209   1.573 -1.0072 -0.8026 -1.9964
14299SOL     OW44337   3.834   2.520   9.818 -0.0502 -0.2137  0.1865
14299SOL    HW144338   3.758   2.483   9.773 -0.9078  0.9903  0.6012
14299SOL    HW244339   3.804   2.535   9.907  0.5061  0.7755  0.2167
14300SOL     OW44340   6.330   0.997   8.045  0.5980  0.4888 -0.2426
14300SOL    HW144341   6.422   1.023   8.042  0.7678  0.0811  0.8289
14300SOL    HW244342   6.286   1.071   8.087  0.2559  1.0938 -1.6051
14301SOL     OW44343   1.535   7.935   7.669  0.1233 -0.0759  0.4431
14301SOL    HW144344   1.613   7.886   7.643 -0.2418  0.2161 -1.3363
14301SOL    HW244345   1.478   7.869   7.708  0.8736 -0.4681  0.8978
14302SOL     OW44346   0.466   2.254   0.261 -0.0249  0.2997  0.8507
14302SOL    HW144347   0.429   2.172   0.229 -0.2427  0.6514  0.1681
14302SOL    HW244348   0.394   2.296   0.309 -0.3553  0.7137  0.0232
14303SOL     OW44349   5.713   2.250   4.860 -0.4546  0.0427 -0.0396
14303SOL    HW144350   5.733   2.234   4.768  1.6392  1.6159  0.0696
14303SOL    HW244351   5.629   2.296   4.859 -1.2626 -1.3875 -1.0170
14304SOL     OW44352   1.770   6.962  11.905  0.5453 -0.6625 -0.2083
14304SOL    HW144353   1.828   7.000  11.840 -0.7238  1.0711 -0.4015
14304SOL    HW244354   1.701   7.027  11.916  0.9589 -0.6282  3.2390
14305SOL     OW44355   4.334   4.689  11.137  0.1727 -0.3143  0.7471
14305SOL    HW144356   4.313   4.682  11.230  1.0546 -0.7768  0.9265
14305SOL    HW244357   4.418   4.644  11.128 -0.9996 -2.3992 -0.7063
14306SOL     OW44358   5.065   5.437   4.021  0.4356  0.2169 -0.2190
14306SOL    HW144359   5.012   5.457   4.098 -0.0315  0.9740 -0.7316
14306SOL    HW244360   5.124   5.367   4.051  0.9995  1.2346  1.1371
14307SOL     OW44361   4.031   2.984   1.367 -0.0057 -0.6077 -0.0277
14307SOL    HW144362   4.101   3.047   1.347  0.3953 -0.6692  1.1252
14307SOL    HW244363   3.957   3.039   1.392  0.1692 -0.5704  0.4225
14308SOL     OW44364   6.091   5.891   9.734  0.4144  0.0068  0.2727
14308SOL    HW144365   6.033   5.903   9.809 -0.1760  0.7550 -0.2721
14308SOL    HW244366   6.035   5.912   9.658  0.4051 -2.6329 -0.5483
14309SOL     OW44367   5.297   4.375   7.469 -0.2054 -0.0808 -0.2012
14309SOL    HW144368   5.207   4.377   7.437 -0.9564 -0.6144  1.7323
14309SOL    HW244369   5.310   4.459   7.513 -0.7943 -1.0837  2.0237
14310SOL     OW44370   3.350   7.914   1.188  0.4792  0.3734 -0.3534
14310SOL    HW144371   3.423   7.969   1.157 -0.5910  0.9097 -2.0845
14310SOL    HW244372   3.292   7.975   1.233  0.7413  0.0831  0.3829
14311SOL     OW44373   0.383   1.265   3.500  0.5057 -0.5520  0.4507
14311SOL    HW144374   0.459   1.216   3.531 -0.0990 -0.9480  1.3592
14311SOL    HW244375   0.346   1.210   3.431  1.2894 -0.1425 -0.3076
14312SOL     OW44376   0.172   4.860   6.958 -0.2305 -0.0979  0.5509
14312SOL    HW144377   0.083   4.891   6.943  0.2388  0.7749 -0.5417
14312SOL    HW244378   0.168   4.766   6.939 -0.5766  0.2253 -1.0918
14313SOL     OW44379   3.250   3.021   5.333  0.3938 -0.1077 -0.5057
14313SOL    HW144380   3.264   3.112   5.309 -0.3269  0.1328 -0.0488
14313SOL    HW244381   3.298   2.971   5.266 -1.9820  0.5066 -2.8368
14314SOL     OW44382   6.820   4.165  12.208 -0.4609  0.3339 -0.0416
14314SOL    HW144383   6.904   4.172  12.253 -0.2932 -1.3235 -0.0525
14314SOL    HW244384   6.778   4.249  12.224  0.5277  0.6059  1.3220
14315SOL     OW44385   1.112   7.882   0.144  0.3251  0.2384  0.3554
14315SOL    HW144386   1.022   7.903   0.121  0.1494  0.8441  1.5284
14315SOL    HW244387   1.163   7.959   0.118  0.6573 -0.4451 -1.0989
14316SOL     OW44388   0.430   3.495  12.029  0.0393  0.3044 -0.5739
14316SOL    HW144389   0.517   3.460  12.007 -0.2358  0.3568 -1.8306
14316SOL    HW244390   0.409   3.456  12.114  1.2190  0.1612 -0.3270
14317SOL     OW44391   0.607   1.436   3.422  0.0898  0.6093  0.2278
14317SOL    HW144392   0.679   1.411   3.479 -0.4266  0.8026  0.9767
14317SOL    HW244393   0.534   1.452   3.481 -0.8067 -0.3798 -0.5784
14318SOL     OW44394   2.089   3.585   7.320  0.2017  0.0058 -0.4037
14318SOL    HW144395   2.095   3.680   7.323  1.4499 -0.0596 -0.2761
14318SOL    HW244396   2.174   3.554   7.354 -0.6074 -1.1590  0.6455
14319SOL     OW44397   7.135   3.891   0.589 -0.0868  0.4943 -0.3140
14319SOL    HW144398   7.202   3.928   0.531  1.2381  0.5759  1.2175
14319SOL    HW244399   7.053   3.906   0.542  0.9667 -0.0700 -2.5049
14320SOL     OW44400   0.421   0.829   6.879 -0.2234 -0.4635 -0.0782
14320SOL    HW144401   0.332   0.863   6.890  0.5945  1.7366  0.3869
14320SOL    HW244402   0.439   0.841   6.786 -0.6098 -1.5119 -0.3008
14321SOL     OW44403   4.529   6.186   2.703  0.8605 -0.1302  0.4763
14321SOL    HW144404   4.619   6.219   2.699  1.4820 -1.5818  1.6265
14321SOL    HW244405   4.535   6.097   2.668  0.1679 -0.7597  1.8848
14322SOL     OW44406   1.027   0.608   4.726 -0.0974 -0.3807  0.0633
14322SOL    HW144407   1.045   0.694   4.764 -0.6447 -0.6424  0.9468
14322SOL    HW244408   1.106   0.587   4.676  0.8282 -0.2090  1.4105
14323SOL     OW44409   3.655   7.623   5.692  0.3940  0.0861 -0.2519
14323SOL    HW144410   3.686   7.553   5.749  0.6693 -0.7167 -1.3748
14323SOL    HW244411   3.704   7.700   5.721  1.1349 -0.4917  0.0598
14324SOL     OW44412   3.595   6.010   1.869  0.3298  0.3148  0.0414
14324SOL    HW144413   3.643   6.012   1.786 -0.1934  2.4326 -0.2689
14324SOL    HW244414   3.628   6.085   1.918  0.5119 -0.8075  1.7222
14325SOL     OW44415   1.028   7.926   4.060  0.3259  0.2484  0.0862
14325SOL    HW144416   1.083   7.848   4.050 -0.0651  0.1824 -2.0937
14325SOL    HW244417   1.090   7.999   4.054  0.4326  0.1357 -0.2062
14326SOL     OW44418   2.114   2.868  10.291  0.2435  0.2011 -0.1683
14326SOL    HW144419   2.135   2.835  10.378  1.2515  0.9509 -0.1112
14326SOL    HW244420   2.019   2.859  10.284  0.2002 -0.2547  0.8413
14327SOL     OW44421   2.959   3.734   3.956 -0.1331 -0.1340  0.3246
14327SOL    HW144422   3.053   3.716   3.946 -0.3660 -0.8945 -0.7264
14327SOL    HW244423   2.950   3.770   4.044  1.4966  2.3754 -0.4273
14328SOL     OW44424   1.511   4.325   3.886  0.0075 -0.3446  0.2077
14328SOL    HW144425   1.544   4.278   3.809  1.5229 -0.6866  1.0306
14328SOL    HW244426   1.453   4.392   3.849  1.1693 -0.1029 -1.2943
14329SOL     OW44427   3.491   5.475   3.323  0.1470 -0.5415 -0.0714
14329SOL    HW144428   3.456   5.413   3.387 -0.6899 -0.6608 -0.6269
14329SOL    HW244429   3.443   5.456   3.243  1.7351 -0.9338 -0.9761
14330SOL     OW44430   2.827   3.602   2.328 -0.2382  0.5362  0.1099
14330SOL    HW144431   2.879   3.551   2.266 -1.2307  1.4388 -1.5413
14330SOL    HW244432   2.889   3.663   2.368  0.5197 -0.4206  0.4337
14331SOL     OW44433   0.830   5.645   0.439  0.2580 -0.8701 -0.2597
14331SOL    HW144434   0.833   5.638   0.534  0.1030  2.9022  0.1819
14331SOL    HW244435   0.921   5.657   0.413  0.2271 -1.1157 -0.4833
14332SOL     OW44436   3.658   2.626   5.087 -0.0786  0.2187  0.3651
14332SOL    HW144437   3.640   2.535   5.113 -0.3418  0.5603  1.4348
14332SOL    HW244438   3.628   2.631   4.997 -0.1713 -0.7300  0.3290
14333SOL     OW44439   0.969   5.892   4.416  0.2081  0.0886  0.2464
14333SOL    HW144440   0.918   5.917   4.339  2.4298  2.5151 -0.5717
14333SOL    HW244441   0.943   5.955   4.483  1.0044  0.3918  0.2778
14334SOL     OW44442   6.936   6.548   0.230 -0.3008 -0.0604 -0.3020
14334SOL    HW144443   6.853   6.594   0.230 -0.6039 -0.5947 -0.0148
14334SOL    HW244444   6.997   6.608   0.188 -0.7379  0.5033 -0.1431
14335SOL     OW44445   5.278   6.899   0.070 -0.5353  0.5540  0.4704
14335SOL    HW144446   5.246   6.836   0.006 -1.3584  0.7586  0.6790
14335SOL    HW244447   5.363   6.927   0.034 -1.3462  1.2865 -0.9622
14336SOL     OW44448   6.968   7.309   0.024 -0.3084  0.1700 -0.4984
14336SOL    HW144449   6.893   7.307  -0.037 -0.5564  1.1396 -0.2410
14336SOL    HW244450   7.034   7.254  -0.018 -0.8745 -0.0552 -1.1198
14337SOL     OW44451   6.595   1.767   7.688  0.3449 -0.1893  0.7274
14337SOL    HW144452   6.669   1.826   7.671 -1.9028  2.7611  0.2987
14337SOL    HW244453   6.567   1.788   7.777 -1.9352  1.3194 -0.2298
14338SOL     OW44454   5.229   5.085  12.044 -0.6179  0.3633 -0.0167
14338SOL    HW144455   5.143   5.096  12.085 -1.5232 -0.6652 -1.5190
14338SOL    HW244456   5.269   5.012  12.092 -1.2933 -0.2535 -0.3701
14339SOL     OW44457   2.118   4.938   4.712  0.4488 -0.2645  0.1057
14339SOL    HW144458   2.139   5.017   4.662  0.4175 -0.3577 -0.0578
14339SOL    HW244459   2.046   4.964   4.769 -1.0665 -0.7233 -1.4920
14340SOL     OW44460   4.364   1.790   6.810  0.0791  0.1042 -0.3333
14340SOL    HW144461   4.413   1.851   6.755  1.0390 -0.9836 -0.7264
14340SOL    HW244462   4.428   1.724   6.835 -1.1268 -1.2432 -0.6734
14341SOL     OW44463   0.157   4.262   4.883  0.0716  0.5191  0.2616
14341SOL    HW144464   0.158   4.328   4.953  1.5526  0.3870  0.4070
14341SOL    HW244465   0.149   4.313   4.802  0.5206  0.8467  0.4161
14342SOL     OW44466   4.995   2.212  11.058  0.2005  0.0891 -0.4931
14342SOL    HW144467   4.937   2.149  11.015  0.0486 -0.1458  0.0494
14342SOL    HW244468   4.942   2.291  11.067 -0.8427 -0.7870  1.9943
14343SOL     OW44469   0.366   4.933   4.019 -1.1824 -0.1203 -0.7520
14343SOL    HW144470   0.330   5.021   4.026 -3.2848 -0.8537 -1.4644
14343SOL    HW244471   0.445   4.943   3.966 -1.1606  1.3884 -0.4673
14344SOL     OW44472   5.259   7.460  10.700 -0.2690 -0.5135  0.0244
14344SOL    HW144473   5.258   7.509  10.783 -2.3954 -0.2621 -0.0759
14344SOL    HW244474   5.267   7.368  10.727  1.5907 -0.2975  0.3314
14345SOL     OW44475   1.856   1.006   9.123 -0.3557  0.5746 -0.0777
14345SOL    HW144476   1.949   1.017   9.106  0.2038  0.0664  2.2589
14345SOL    HW244477   1.814   1.076   9.073  1.4033  1.6878 -0.0734
14346SOL     OW44478   0.549   1.787   9.057 -0.1858 -0.4004 -0.0734
14346SOL    HW144479   0.454   1.790   9.071 -0.1533  2.5803  0.1703
14346SOL    HW244480   0.559   1.769   8.964 -1.0668  0.8699 -0.4322
14347SOL     OW44481   5.470   2.593  11.799  0.5904  0.6483 -0.2476
14347SOL    HW144482   5.399   2.548  11.845  0.8863  0.4002 -0.0289
14347SOL    HW244483   5.546   2.583  11.856  0.7101  1.2555 -0.2960
14348SOL     OW44484   6.274   4.560   7.935  0.4376  0.3688 -0.1051
14348SOL    HW144485   6.293   4.646   7.897 -0.1102  1.1985  1.4216
14348SOL    HW244486   6.289   4.572   8.028 -1.8012 -0.5792  0.4231
14349SOL     OW44487   5.685   3.129  11.577  0.0366  0.2125  0.1741
14349SOL    HW144488   5.590   3.116  11.579 -0.0644  0.9484  0.1882
14349SOL    HW244489   5.703   3.188  11.650  0.6816 -0.9760  1.0264
14350SOL     OW44490   0.673   7.203   5.725  0.0700 -0.3437 -0.5982
14350SOL    HW144491   0.685   7.298   5.726 -0.7369 -0.1590  2.8723
14350SOL    HW244492   0.762   7.167   5.723  0.3983  0.4646 -1.0646
14351SOL     OW44493   5.433   6.434   5.489  0.4134  0.4172  0.2110
14351SOL    HW144494   5.432   6.422   5.394 -0.7163  0.2927  0.2198
14351SOL    HW244495   5.420   6.346   5.524  0.4121  0.5208  0.4723
14352SOL     OW44496   1.090   0.853   1.449 -0.5641  0.2819  0.2597
14352SOL    HW144497   1.092   0.862   1.544  0.7328  1.9233  0.1193
14352SOL    HW244498   1.177   0.820   1.427 -0.8286 -0.0019 -0.3791
14353SOL     OW44499   5.094   1.239   0.221  0.8583  0.1778 -0.3203
14353SOL    HW144500   5.138   1.264   0.140 -1.0202 -0.0335 -1.4796
14353SOL    HW244501   5.094   1.143   0.220 -2.5001  0.0125 -2.1856
14354SOL     OW44502   5.168   3.009   4.844 -0.4451  0.2111  0.3830
14354SOL    HW144503   5.131   2.921   4.857  0.4908 -0.0970  1.0846
14354SOL    HW244504   5.177   3.044   4.933 -0.5070  0.8991  0.1224
14355SOL     OW44505   4.845   3.229   2.904  0.0931  0.2300 -0.2578
14355SOL    HW144506   4.939   3.218   2.921 -0.0339 -0.3002  0.1055
14355SOL    HW244507   4.836   3.323   2.885  0.6943  0.2872 -0.2950
14356SOL     OW44508   4.616   5.534  12.392  0.1108 -0.1825  0.5444
14356SOL    HW144509   4.662   5.606  12.348  0.8088  0.0999  1.7078
14356SOL    HW244510   4.546   5.576  12.441  0.3575 -0.3056  1.0138
14357SOL     OW44511   0.585   1.753   1.594 -0.0182  0.3647 -0.3579
14357SOL    HW144512   0.501   1.795   1.614 -0.3224 -0.4887  0.1716
14357SOL    HW244513   0.637   1.764   1.673  0.3885  0.9003 -0.6885
14358SOL     OW44514   0.494   4.085   0.994  0.1395 -0.3954  0.0145
14358SOL    HW144515   0.422   4.072   0.933 -0.4436 -1.9030  0.9708
14358SOL    HW244516   0.493   4.007   1.050  2.6376 -0.5786 -0.0622
14359SOL     OW44517   7.605   3.431   7.090  0.2112 -0.4601  0.1116
14359SOL    HW144518   7.554   3.396   7.017 -1.2368  1.2953  0.2136
14359SOL    HW244519   7.560   3.398   7.168  1.5501 -2.0459  0.2615
14360SOL     OW44520   6.462   4.793   4.403 -0.6074 -0.4924 -0.2779
14360SOL    HW144521   6.433   4.708   4.437 -2.4910  0.2464  0.0986
14360SOL    HW244522   6.470   4.848   4.481 -1.8537  0.3423 -0.7141
14361SOL     OW44523   5.704   3.939   8.588 -0.0526  0.0861  0.5244
14361SOL    HW144524   5.630   3.957   8.646 -0.2058  1.0369  0.0466
14361SOL    HW244525   5.720   3.845   8.598 -1.4246 -0.1652  0.5204
14362SOL     OW44526   4.904   6.585   9.326 -0.2767 -0.2087 -0.7850
14362SOL    HW144527   4.893   6.652   9.394  1.2061 -0.7187 -0.0161
14362SOL    HW244528   4.841   6.611   9.258 -0.3925  1.4363 -0.1087
14363SOL     OW44529   0.215   4.359   7.592 -0.1904  0.7040  0.6151
14363SOL    HW144530   0.128   4.322   7.607  0.3779 -0.1450  2.0325
14363SOL    HW244531   0.198   4.449   7.565 -1.5327  0.1291 -0.5535
14364SOL     OW44532   7.606   7.594   2.965  0.8832  0.3277 -0.2698
14364SOL    HW144533   7.637   7.511   2.999  0.7314 -0.4562 -1.9157
14364SOL    HW244534   7.568   7.572   2.879 -0.1921  1.9151 -0.2537
14365SOL     OW44535   2.910   0.859   0.699  0.0717  0.3217 -0.1590
14365SOL    HW144536   2.823   0.824   0.719 -0.0123 -0.6420 -1.9422
14365SOL    HW244537   2.892   0.932   0.639  0.4861 -0.3606 -1.1435
14366SOL     OW44538   2.656   6.187  11.045 -1.1666 -0.5171  0.5196
14366SOL    HW144539   2.726   6.205  10.982 -2.4767  1.3710 -0.4600
14366SOL    HW244540   2.695   6.207  11.131 -0.4000  0.1837  0.0207
14367SOL     OW44541   1.749   7.292   9.856  0.2043  0.1878  0.2051
14367SOL    HW144542   1.734   7.213   9.803  1.5948 -1.7140  2.4273
14367SOL    HW244543   1.675   7.296   9.916  0.5198  0.0949  0.6098
14368SOL     OW44544   4.686   0.591   2.029  0.0562  0.2102  0.0588
14368SOL    HW144545   4.719   0.524   2.089  0.6341  1.2858  0.9920
14368SOL    HW244546   4.764   0.634   1.996 -0.3126  0.7043 -0.1849
14369SOL     OW44547   2.955   0.787   1.692 -0.1477  0.0460  0.0992
14369SOL    HW144548   3.012   0.849   1.647  1.3249 -0.8275  0.6726
14369SOL    HW244549   2.910   0.838   1.758 -0.3024  0.8219 -0.5928
14370SOL     OW44550   3.314   5.750   6.491 -0.4429  0.0739  0.2217
14370SOL    HW144551   3.339   5.840   6.511  1.2717  0.1870 -2.0460
14370SOL    HW244552   3.392   5.698   6.509 -2.1729 -1.5737  4.2025
14371SOL     OW44553   7.356   6.484   5.201  0.3402 -0.0902 -0.4329
14371SOL    HW144554   7.273   6.443   5.227  0.8377 -1.0637 -0.3465
14371SOL    HW244555   7.416   6.411   5.188  1.3700  0.6301  0.1258
14372SOL     OW44556   7.515   1.806   4.956 -0.1414 -0.0204 -0.5462
14372SOL    HW144557   7.560   1.885   4.926  0.5099  0.5499  1.7376
14372SOL    HW244558   7.442   1.838   5.009 -0.3575 -0.9459 -0.2554
14373SOL     OW44559   5.765   5.455   8.058  0.0924 -0.0455  0.0094
14373SOL    HW144560   5.717   5.492   7.984  0.7909 -1.3486 -1.1508
14373SOL    HW244561   5.717   5.375   8.081  0.3362 -0.0741  0.4288
14374SOL     OW44562   6.664   7.858   6.527  0.6098 -0.0276  0.3080
14374SOL    HW144563   6.605   7.789   6.497  0.1306  0.3155  0.4633
14374SOL    HW244564   6.749   7.833   6.491  0.5947 -1.0878  0.9716
14375SOL     OW44565   3.033   0.541   2.264 -0.5636 -0.4188  0.1811
14375SOL    HW144566   3.117   0.583   2.246 -0.3145 -1.3095 -0.8942
14375SOL    HW244567   3.020   0.552   2.358 -0.7756  2.4563 -0.0882
14376SOL     OW44568   6.971   0.480   5.582  0.0996 -0.2892  0.1359
14376SOL    HW144569   6.901   0.520   5.633  0.3180  0.4771 -0.1424
14376SOL    HW244570   6.975   0.533   5.502  1.6803  0.3713  0.5938
14377SOL     OW44571   6.541   0.152   9.835  0.0420 -0.5096 -0.3972
14377SOL    HW144572   6.480   0.102   9.779  0.1177 -0.5343 -0.4575
14377SOL    HW244573   6.628   0.122   9.808  0.1664  0.7123 -1.4586
14378SOL     OW44574   0.909   0.679   5.957 -0.3796  0.0654 -0.0958
14378SOL    HW144575   0.940   0.655   6.044 -0.2327  2.6052  0.6274
14378SOL    HW244576   0.988   0.693   5.906 -0.4660 -1.3326 -0.6677
14379SOL     OW44577   1.157   1.766  11.048 -0.1106 -0.1316  0.0136
14379SOL    HW144578   1.179   1.859  11.036  0.9243 -0.6117 -2.5645
14379SOL    HW244579   1.108   1.743  10.968  2.0355 -2.4109 -0.7634
14380SOL     OW44580   0.357   3.578   2.562 -0.3084 -0.2333  0.8687
14380SOL    HW144581   0.277   3.623   2.590 -0.0323  0.9095 -0.1571
14380SOL    HW244582   0.428   3.632   2.596  0.0316 -0.6947  0.8951
14381SOL     OW44583   5.084   4.448   2.191  0.1511  0.1803  0.3283
14381SOL    HW144584   5.142   4.455   2.267 -1.9217  2.3189  1.8940
14381SOL    HW244585   5.124   4.505   2.125 -0.2017  1.8370  1.4776
14382SOL     OW44586   1.390   7.263   8.434 -0.2915 -0.4433 -0.3527
14382SOL    HW144587   1.302   7.300   8.432  0.8280  2.5581  0.2974
14382SOL    HW244588   1.387   7.195   8.501 -2.1272 -0.5031 -0.4686
14383SOL     OW44589   1.655   5.359   8.064 -0.2885 -0.2780 -0.0625
14383SOL    HW144590   1.649   5.386   8.155  0.5861 -0.8118  0.1741
14383SOL    HW244591   1.607   5.425   8.015  2.0166  1.9410  0.4444
14384SOL     OW44592   6.350   3.453  10.803 -0.4397  0.3676 -0.1980
14384SOL    HW144593   6.279   3.505  10.839 -1.3887 -2.4919  2.5317
14384SOL    HW244594   6.423   3.468  10.864 -1.0588 -2.0750  1.2913
14385SOL     OW44595   5.416   1.323   6.044  0.4023 -0.4527 -0.5548
14385SOL    HW144596   5.451   1.235   6.061  1.5203  0.0893  0.0331
14385SOL    HW244597   5.333   1.307   5.999  0.3195 -1.8261  0.0212
14386SOL     OW44598   7.609   7.755   8.091  0.7587 -0.3158  0.4194
14386SOL    HW144599   7.599   7.773   7.997  1.3872  0.5512  0.5082
14386SOL    HW244600   7.692   7.708   8.097  2.2455  2.2013  0.8138
14387SOL     OW44601   5.107   7.138  12.064 -0.4722  0.1524 -0.7046
14387SOL    HW144602   5.193   7.097  12.064 -0.7306 -0.4119  0.2661
14387SOL    HW244603   5.062   7.101  12.140 -1.7412  0.0941 -1.4574
14388SOL     OW44604   1.128   0.674   6.139 -0.6388 -0.5754  0.0236
14388SOL    HW144605   1.175   0.676   6.222  0.2524 -0.2252 -0.4830
14388SOL    HW244606   1.161   0.749   6.090 -0.7905 -1.0604 -0.8435
14389SOL     OW44607   2.337   1.256   0.803 -0.1096  0.3117 -0.1986
14389SOL    HW144608   2.415   1.306   0.828 -0.1609  0.0102  0.5844
14389SOL    HW244609   2.263   1.309   0.834 -0.1688 -0.1745  0.4945
14390SOL     OW44610   7.383   3.741   3.768 -0.0629  0.0927 -0.4856
14390SOL    HW144611   7.446   3.800   3.726  0.1080  0.9776  0.9397
14390SOL    HW244612   7.424   3.717   3.851 -1.4719  0.4933  0.3649
14391SOL     OW44613   7.673   1.261   7.506 -0.3229  0.8216 -0.2657
14391SOL    HW144614   7.595   1.308   7.535  0.3798  1.4892  0.5972
14391SOL    HW244615   7.744   1.294   7.562  0.7224  0.7613 -1.4950
14392SOL     OW44616   7.799   4.797   4.657 -0.6961 -0.3054 -0.4272
14392SOL    HW144617   7.878   4.743   4.648  0.0959  0.6272  0.7178
14392SOL    HW244618   7.755   4.763   4.735 -1.6050 -1.0139 -1.2268
14393SOL     OW44619   6.492   1.485   0.103 -0.1319 -0.5898  0.0515
14393SOL    HW144620   6.587   1.471   0.103 -0.0600 -0.2019  0.8479
14393SOL    HW244621   6.480   1.560   0.161 -0.9415 -0.7057  0.0403
14394SOL     OW44622   6.288   6.830   9.217 -0.0829 -0.3331  0.2155
14394SOL    HW144623   6.321   6.829   9.307  0.8003 -0.4517 -0.0955
14394SOL    HW244624   6.358   6.872   9.167 -0.9522  0.5584 -0.2818
14395SOL     OW44625   5.355   0.344   4.066 -0.0950 -0.1689 -0.3962
14395SOL    HW144626   5.383   0.322   3.977 -1.2624  0.6642 -0.9938
14395SOL    HW244627   5.304   0.268   4.094  0.6028 -0.6008 -0.2754
14396SOL     OW44628   6.399   6.732   0.226  0.5289 -0.3602  0.2477
14396SOL    HW144629   6.474   6.697   0.273  0.3921 -0.6746  0.2402
14396SOL    HW244630   6.434   6.761   0.142  0.7001 -0.1938  0.3781
14397SOL     OW44631   1.214   3.051   8.062 -0.4371 -0.3881  0.2372
14397SOL    HW144632   1.266   3.018   7.989 -0.1684  1.8732 -0.6723
14397SOL    HW244633   1.257   3.016   8.140  1.3551 -0.0784 -0.5657
14398SOL     OW44634   3.734   7.948   2.477  0.3426  0.1396 -0.0197
14398SOL    HW144635   3.726   7.918   2.386  0.8338  0.2342 -0.0991
14398SOL    HW244636   3.813   8.003   2.476 -1.4665  2.9748 -0.3277
14399SOL     OW44637   0.162   5.199   2.508  0.4816  0.0617  0.0520
14399SOL    HW144638   0.150   5.260   2.580 -0.9188 -0.7664  0.5642
14399SOL    HW244639   0.199   5.121   2.549  0.7954  0.0087 -0.3294
14400SOL     OW44640   3.003   1.654   7.160 -0.0255  0.1977 -0.2307
14400SOL    HW144641   2.970   1.578   7.207  0.7017  0.4757  0.7611
14400SOL    HW244642   2.926   1.691   7.115 -0.4571 -0.8616 -0.3819
14401SOL     OW44643   7.547   4.479  10.127 -0.0518 -0.4444 -0.2177
14401SOL    HW144644   7.631   4.523  10.117  0.3814 -1.3907 -0.7638
14401SOL    HW244645   7.489   4.525  10.065  0.3398 -0.4964 -0.6287
14402SOL     OW44646   3.796   1.960   1.645 -0.4114  0.1546  0.7744
14402SOL    HW144647   3.885   1.987   1.665  0.3052 -1.3597 -0.1381
14402SOL    HW244648   3.749   2.041   1.626  1.2493  0.8785 -0.5133
14403SOL     OW44649   7.431   3.980   1.218 -0.3761  0.3982  0.0803
14403SOL    HW144650   7.452   4.058   1.269  0.1135  0.3543 -0.0501
14403SOL    HW244651   7.339   3.962   1.239  0.2586 -0.6044  2.2415
14404SOL     OW44652   0.977   2.700   0.553  0.0932  0.2801  0.3518
14404SOL    HW144653   1.013   2.613   0.544  1.4053  1.0294 -2.8139
14404SOL    HW244654   1.050   2.754   0.582 -0.3804  0.5694  1.0385
14405SOL     OW44655   2.945   2.199   6.704  0.3442  0.2285 -0.0497
14405SOL    HW144656   2.988   2.273   6.747  0.2857  0.2950 -0.1061
14405SOL    HW244657   2.969   2.123   6.757 -1.1400  0.5394  1.1341
14406SOL     OW44658   0.518   5.912  11.624 -0.0359 -0.4163  0.2838
14406SOL    HW144659   0.467   5.910  11.543 -0.4833 -0.2316  0.5553
14406SOL    HW244660   0.597   5.863  11.604  0.5141  0.8258 -0.7052
14407SOL     OW44661   0.482   6.620   0.530 -0.3104 -0.4362  0.4639
14407SOL    HW144662   0.391   6.650   0.530 -0.2899 -0.3318 -0.5810
14407SOL    HW244663   0.475   6.525   0.541 -0.4745 -0.3145  1.5727
14408SOL     OW44664   3.798   1.202   9.784 -0.1836  0.2759  0.1194
14408SOL    HW144665   3.886   1.180   9.815 -0.5108 -1.1513  0.0858
14408SOL    HW244666   3.788   1.295   9.805  0.6815  0.0404  1.7299
14409SOL     OW44667   1.795   7.847   8.316 -0.0325  0.0137  0.1214
14409SOL    HW144668   1.843   7.904   8.255 -0.2007  0.7205  0.6336
14409SOL    HW244669   1.859   7.826   8.384  0.0069 -0.3665 -0.0266
14410SOL     OW44670   5.268   5.786   8.974  0.4130  0.1154  0.3958
14410SOL    HW144671   5.209   5.819   9.042  0.1337 -0.7129  0.5784
14410SOL    HW244672   5.210   5.749   8.907  0.7039 -0.1186  0.2669
14411SOL     OW44673   5.664   6.338   1.856  0.4760 -0.3668  0.1959
14411SOL    HW144674   5.657   6.419   1.906  3.8899  0.0134  0.2553
14411SOL    HW244675   5.700   6.365   1.771  0.9823 -1.7515 -0.0532
14412SOL     OW44676   2.525   6.212   4.699 -0.1621 -0.0292 -0.1172
14412SOL    HW144677   2.532   6.117   4.700 -1.2306 -0.1601 -1.6243
14412SOL    HW244678   2.461   6.232   4.768 -1.0292 -0.5512 -0.7439
14413SOL     OW44679   3.082   0.327   0.789 -0.5358  0.2805 -0.6138
14413SOL    HW144680   3.037   0.388   0.730 -0.3409 -1.1950 -2.3795
14413SOL    HW244681   3.031   0.247   0.785 -0.3032  0.0219  0.9929
14414SOL     OW44682   7.557   3.387  12.419  0.2302  0.1870  0.2988
14414SOL    HW144683   7.545   3.302  12.461 -0.8932 -0.1275 -0.6181
14414SOL    HW244684   7.470   3.410  12.386  0.6209  1.4762  0.1256
14415SOL     OW44685   3.063   0.490   6.846 -0.1442  0.3104  0.7057
14415SOL    HW144686   3.064   0.555   6.916  1.3572  1.6933 -0.5129
14415SOL    HW244687   3.154   0.463   6.836 -0.5571 -1.0496  0.3236
14416SOL     OW44688   1.456   2.013   7.965  0.1492 -0.3201 -0.2242
14416SOL    HW144689   1.506   2.094   7.954  0.0015 -0.2806 -0.6056
14416SOL    HW244690   1.381   2.038   8.018  0.5920 -0.4042  0.4587
14417SOL     OW44691   2.884   5.691   4.306  0.1188  0.5576 -0.0687
14417SOL    HW144692   2.826   5.670   4.379  1.0259  0.3138  0.6051
14417SOL    HW244693   2.971   5.698   4.346  0.8541 -0.8368 -1.2954
14418SOL     OW44694   0.827   5.198   9.635  1.0315  0.5771  0.1017
14418SOL    HW144695   0.883   5.131   9.596  0.0009  0.2912 -0.9338
14418SOL    HW244696   0.857   5.281   9.596  1.3440  0.5363  0.2574
14419SOL     OW44697   1.143   2.284   9.267 -0.3823 -0.7204 -0.1813
14419SOL    HW144698   1.085   2.326   9.330 -0.2331 -0.4506 -0.2266
14419SOL    HW244699   1.097   2.290   9.183  1.7899  3.9869 -1.3276
14420SOL     OW44700   3.058   6.524  10.893  0.4249 -0.0674 -0.2699
14420SOL    HW144701   2.994   6.554  10.958  1.7488  1.5721  0.3469
14420SOL    HW244702   3.028   6.436  10.869 -0.6974 -0.3117  1.7903
14421SOL     OW44703   3.655   6.430   8.885  0.2952 -0.2707  0.4373
14421SOL    HW144704   3.646   6.339   8.913  1.8924 -1.0554 -1.3772
14421SOL    HW244705   3.610   6.481   8.953 -0.8964 -2.4062  1.3395
14422SOL     OW44706   7.422   5.767   5.734 -0.0425 -0.1863  0.8849
14422SOL    HW144707   7.383   5.757   5.820  2.1436  1.8367  2.2370
14422SOL    HW244708   7.443   5.678   5.706 -0.5492 -0.8677  2.5796
14423SOL     OW44709   3.473   6.234   1.143  0.6277  0.4771  0.3322
14423SOL    HW144710   3.554   6.187   1.126  1.0703  0.5902  2.0048
14423SOL    HW244711   3.460   6.228   1.238 -0.8971  1.1439  0.2040
14424SOL     OW44712   7.451   2.248   5.822  0.3258  0.5182 -0.3195
14424SOL    HW144713   7.529   2.295   5.791  0.9086 -0.0852  0.2166
14424SOL    HW244714   7.442   2.275   5.913 -0.0997  0.5790 -0.3784
14425SOL     OW44715   3.020   1.534   7.914  0.3259  0.0424 -0.3772
14425SOL    HW144716   3.035   1.457   7.860 -0.2328  0.6148 -1.3709
14425SOL    HW244717   3.095   1.591   7.896 -0.9853  1.2355 -2.3810
14426SOL     OW44718   0.017   2.756   5.053  0.0060  0.0840  0.1191
14426SOL    HW144719   0.002   2.737   5.145  0.9554  0.1446  0.2906
14426SOL    HW244720  -0.046   2.826   5.033 -0.2100  0.0621  0.7120
14427SOL     OW44721   5.992   4.860   1.673  0.1985 -0.4479  0.1747
14427SOL    HW144722   6.056   4.836   1.606  0.4615 -1.1251  0.6509
14427SOL    HW244723   5.915   4.807   1.652 -0.5121  0.9409 -0.8607
14428SOL     OW44724   3.393   6.334   0.855  0.1004 -0.2357  0.1209
14428SOL    HW144725   3.427   6.307   0.940  1.1336 -0.3707 -0.3151
14428SOL    HW244726   3.299   6.347   0.869  0.3378  0.2682  1.4027
14429SOL     OW44727   2.863   5.081   9.419 -0.2856  0.5196  0.4490
14429SOL    HW144728   2.773   5.057   9.443 -0.3288  0.7523  0.5226
14429SOL    HW244729   2.910   5.085   9.502  0.3068 -1.5988  0.2839
14430SOL     OW44730   7.412   6.763   9.930  0.2679 -0.3345  0.1186
14430SOL    HW144731   7.429   6.673   9.903  0.6000 -0.4536  0.7086
14430SOL    HW244732   7.375   6.755  10.019 -1.1150  0.0284 -0.3949
14431SOL     OW44733   7.882   1.581   0.710 -0.0959 -0.3746  0.2990
14431SOL    HW144734   7.965   1.582   0.662  0.0400 -1.4776  0.4824
14431SOL    HW244735   7.871   1.489   0.736 -2.5128 -0.7442 -1.7038
14432SOL     OW44736   1.645   7.019   5.880 -0.2592 -0.3551  0.2465
14432SOL    HW144737   1.664   7.108   5.909 -2.5456 -0.0475  1.0273
14432SOL    HW244738   1.606   6.977   5.957 -2.3505 -0.9251 -1.0314
14433SOL     OW44739   4.371   2.986   5.339 -0.0181 -0.0074 -0.1907
14433SOL    HW144740   4.333   3.074   5.336 -2.0161 -0.8122 -0.3215
14433SOL    HW244741   4.425   2.986   5.418  0.0886  1.3594 -0.2453
14434SOL     OW44742   3.954   5.759   8.232  0.1451 -0.0551 -0.2633
14434SOL    HW144743   4.017   5.711   8.177 -0.2827  0.5016 -1.2782
14434SOL    HW244744   3.999   5.841   8.252 -0.0389  0.1144 -0.5362
14435SOL     OW44745   7.244   7.124   5.788 -0.8183  0.0882  0.6217
14435SOL    HW144746   7.303   7.090   5.721  0.2773  1.1378  1.0177
14435SOL    HW244747   7.228   7.215   5.763 -0.5939  0.4217  1.6224
14436SOL     OW44748   2.070   7.331  10.717 -0.0938 -0.4355 -0.4378
14436SOL    HW144749   2.070   7.379  10.800  0.7165 -0.4387 -0.4284
14436SOL    HW244750   2.065   7.399  10.650 -0.8408 -0.4375 -0.3841
14437SOL     OW44751   2.594   7.252   7.566 -0.5054 -0.1004  0.3078
14437SOL    HW144752   2.537   7.177   7.552 -0.8249 -0.0094  1.0632
14437SOL    HW244753   2.607   7.255   7.661 -2.6209  2.3325  0.6110
14438SOL     OW44754   0.398   6.036   8.088 -0.6124 -0.1775 -0.4325
14438SOL    HW144755   0.378   5.943   8.075  0.4314 -0.3476 -0.8743
14438SOL    HW244756   0.313   6.076   8.106 -1.5684 -0.7236 -3.1821
14439SOL     OW44757   0.464   1.375  12.103 -0.7198 -0.5789  0.1463
14439SOL    HW144758   0.503   1.297  12.142  0.3414 -0.9776 -1.5905
14439SOL    HW244759   0.475   1.444  12.168  0.6813 -1.2885  0.6916
14440SOL     OW44760   3.744   0.519   7.567  0.4220  0.1116 -0.2336
14440SOL    HW144761   3.803   0.459   7.612 -0.1540 -0.8008 -0.6533
14440SOL    HW244762   3.708   0.467   7.495 -1.1745  0.5136  0.2285
14441SOL     OW44763   4.442   7.102   0.953  0.0877  0.3166  0.3058
14441SOL    HW144764   4.374   7.092   1.020  1.1380  0.4088  1.4206
14441SOL    HW244765   4.395   7.138   0.877 -1.2717 -0.5092  0.7116
14442SOL     OW44766   0.991   4.343   5.840  0.7818 -0.2351  0.2222
14442SOL    HW144767   0.961   4.374   5.755  0.6481 -2.4703 -0.6165
14442SOL    HW244768   0.917   4.356   5.899 -0.2346 -1.4291 -0.7406
14443SOL     OW44769   5.723   1.223   7.608 -0.7759 -0.1194  0.2467
14443SOL    HW144770   5.650   1.226   7.670 -2.5690  2.2328 -1.8221
14443SOL    HW244771   5.683   1.217   7.522  1.5547 -0.1403 -0.9283
14444SOL     OW44772   5.205   1.206   0.843  0.1373  0.2135 -0.2800
14444SOL    HW144773   5.272   1.274   0.829  0.2483  0.2970  0.5942
14444SOL    HW244774   5.235   1.132   0.791  0.6754  0.4093 -0.2538
14445SOL     OW44775   4.072   6.750   4.146  0.2018  0.2203  0.1602
14445SOL    HW144776   4.144   6.711   4.096  0.1362  0.9008 -0.4818
14445SOL    HW244777   4.090   6.725   4.237 -0.0763 -1.6818 -0.2554
14446SOL     OW44778   6.897   3.813  12.365 -0.2775  0.1990  0.1815
14446SOL    HW144779   6.816   3.854  12.336 -0.0072  0.0612 -0.8155
14446SOL    HW244780   6.869   3.741  12.422 -0.8256  0.5511  0.3646
14447SOL     OW44781   7.231   6.581   6.591  0.4078  0.5475  0.3435
14447SOL    HW144782   7.168   6.620   6.530 -0.6898 -0.7664  0.5710
14447SOL    HW244783   7.315   6.617   6.565 -0.3280  1.7152 -0.5216
14448SOL     OW44784   7.784   5.049  11.171  0.0671 -0.4002 -0.4013
14448SOL    HW144785   7.860   5.011  11.217  1.1390 -0.3955 -2.0799
14448SOL    HW244786   7.764   4.986  11.102 -1.6139 -0.4826  0.1176
14449SOL     OW44787   5.280   1.634   4.734 -0.1361 -0.2326 -0.1272
14449SOL    HW144788   5.341   1.602   4.800  0.0879  1.2743  0.4358
14449SOL    HW244789   5.291   1.729   4.735 -0.6578 -0.1221 -1.8295
14450SOL     OW44790   2.206   1.930   7.714 -0.2832  0.0602  0.2992
14450SOL    HW144791   2.126   1.975   7.740  1.8667  3.4540  1.6576
14450SOL    HW244792   2.236   1.977   7.636  0.6940 -0.7327  0.1733
14451SOL     OW44793   4.424   3.941   2.486  0.7952  0.2117 -0.2062
14451SOL    HW144794   4.477   3.921   2.562  1.0295  1.1130 -0.1257
14451SOL    HW244795   4.458   3.883   2.417  0.4940 -0.7028  0.3837
14452SOL     OW44796   7.448   4.860   6.776  1.1909  0.3340 -0.1458
14452SOL    HW144797   7.383   4.851   6.845  1.1834  2.0455  0.1228
14452SOL    HW244798   7.426   4.792   6.712 -1.8244  1.7408 -0.7981
14453SOL     OW44799   4.926   6.433   9.782 -0.3968  0.0294  0.1043
14453SOL    HW144800   4.959   6.361   9.728 -0.1295 -0.8184  1.3439
14453SOL    HW244801   4.979   6.429   9.861  1.1608  3.0345 -0.6803
14454SOL     OW44802   1.262   1.847   0.087  0.1541  0.1257 -0.3020
14454SOL    HW144803   1.288   1.939   0.097 -0.1969  0.3383 -1.1739
14454SOL    HW244804   1.345   1.799   0.087  0.5348  0.6874 -2.0459
14455SOL     OW44805   1.642   1.203   1.955  0.0436 -0.4976 -0.7045
14455SOL    HW144806   1.682   1.231   2.037 -0.0578  1.9833 -1.4082
14455SOL    HW244807   1.551   1.233   1.961 -0.1166 -0.7711 -1.5090
14456SOL     OW44808   7.248   1.564   2.526 -0.4439 -0.0736  0.0535
14456SOL    HW144809   7.262   1.565   2.431 -0.7526 -2.0626 -0.0580
14456SOL    HW244810   7.170   1.617   2.540  0.2360  1.1599 -0.6565
14457SOL     OW44811   0.974   5.023   6.396  0.6958  0.2158  0.1912
14457SOL    HW144812   0.992   5.084   6.325  1.9561 -1.9098 -1.4727
14457SOL    HW244813   1.018   5.060   6.472 -0.7100  2.5763 -0.0384
14458SOL     OW44814   4.465   7.062   0.491 -0.5495 -1.0822  1.0693
14458SOL    HW144815   4.472   7.133   0.554 -0.6470 -0.9034  0.8799
14458SOL    HW244816   4.532   7.081   0.425 -1.9488  0.0046 -0.1255
14459SOL     OW44817   5.505   5.095   1.435  0.6928 -0.1683  0.1936
14459SOL    HW144818   5.413   5.084   1.410  0.4339 -1.4948  1.5544
14459SOL    HW244819   5.553   5.034   1.378  0.7627  0.5993 -0.5878
14460SOL     OW44820   4.024   6.917   8.541 -0.5434 -0.0578 -0.0664
14460SOL    HW144821   4.015   6.936   8.635  0.5056 -0.2991  0.0883
14460SOL    HW244822   4.014   6.822   8.535  2.2643 -0.4334  0.1940
14461SOL     OW44823   6.062   1.164   0.854  0.8209 -0.5830  0.0550
14461SOL    HW144824   6.110   1.095   0.807  2.0391 -0.3075  0.8420
14461SOL    HW244825   5.981   1.175   0.804  1.3327 -1.4502 -1.0133
14462SOL     OW44826   3.815   0.043   7.434 -0.7319 -0.0709 -0.3034
14462SOL    HW144827   3.749   0.038   7.365 -0.5364 -0.4019 -0.4669
14462SOL    HW244828   3.814   0.135   7.461 -0.9097  0.0295 -0.6463
14463SOL     OW44829   6.975   2.034   5.768  0.5200  0.1157  0.5551
14463SOL    HW144830   6.932   2.107   5.812 -0.0394 -0.8985  1.7473
14463SOL    HW244831   7.043   2.005   5.829 -1.0647 -2.0916  1.3674
14464SOL     OW44832   1.104   0.304  11.123 -0.4826  0.6236 -0.6343
14464SOL    HW144833   1.152   0.362  11.064  0.8213 -0.2464 -0.4598
14464SOL    HW244834   1.160   0.227  11.133 -1.8552 -0.3792 -0.3064
14465SOL     OW44835   1.566   4.337   9.175 -0.6526 -0.5057  0.6587
14465SOL    HW144836   1.521   4.252   9.172  0.4245 -1.1009  0.8244
14465SOL    HW244837   1.524   4.388   9.106 -0.6700 -1.5196 -0.1195
14466SOL     OW44838   7.774   4.917   3.695 -0.2005  0.0289 -0.1995
14466SOL    HW144839   7.683   4.888   3.691  0.2832 -1.5892  0.0263
14466SOL    HW244840   7.769   5.012   3.685 -1.7895 -0.1795 -1.7807
14467SOL     OW44841   5.743   6.782   5.073 -0.1555 -0.4636 -0.3711
14467SOL    HW144842   5.690   6.792   5.151  1.4918  2.2064  0.5736
14467SOL    HW244843   5.686   6.809   5.001 -1.0421 -0.8521  0.1790
14468SOL     OW44844   6.479   4.642   3.751 -0.4772 -0.1810 -0.5079
14468SOL    HW144845   6.456   4.593   3.830 -0.1201  0.7086  0.1559
14468SOL    HW244846   6.400   4.689   3.728 -0.4003  0.0448 -0.3160
14469SOL     OW44847   7.412   2.819   3.735 -0.1489 -0.4938  0.1142
14469SOL    HW144848   7.486   2.873   3.704 -0.1043 -0.2920  0.5706
14469SOL    HW244849   7.453   2.737   3.762  0.0439 -0.0374  1.2663
14470SOL     OW44850   5.712   7.388  10.000 -0.7492 -0.5213  0.1141
14470SOL    HW144851   5.703   7.467   9.945 -0.8910 -0.0518  0.8059
14470SOL    HW244852   5.645   7.328   9.967 -2.0789  0.4555  0.9640
14471SOL     OW44853   6.792   2.078  10.226 -0.0184 -0.1163  0.9148
14471SOL    HW144854   6.848   2.128  10.286  2.7421 -0.3557 -1.2945
14471SOL    HW244855   6.835   2.085  10.141 -2.7790 -1.3382 -0.7208
14472SOL     OW44856   7.521   1.485   6.609  0.1518 -0.4928  0.1687
14472SOL    HW144857   7.479   1.406   6.644 -0.5821  0.0842  0.6290
14472SOL    HW244858   7.455   1.554   6.619  0.4880  0.0216 -0.9669
14473SOL     OW44859   0.440   0.627   3.868  0.0728 -0.0561 -0.3607
14473SOL    HW144860   0.362   0.572   3.872 -0.1867  0.3038 -0.4366
14473SOL    HW244861   0.463   0.642   3.960  2.5847 -3.6816 -0.1966
14474SOL     OW44862   1.214   5.739   1.379 -0.0035 -0.2849 -0.2169
14474SOL    HW144863   1.245   5.651   1.401 -1.1943 -0.5166  0.6746
14474SOL    HW244864   1.155   5.725   1.305 -2.3197 -0.6927  1.5742
14475SOL     OW44865   1.660   7.586   6.292 -0.7436 -0.6783  0.2483
14475SOL    HW144866   1.647   7.625   6.378 -0.1754  0.0001  0.0407
14475SOL    HW244867   1.601   7.512   6.289 -1.6389  0.0023  0.7698
14476SOL     OW44868   1.056   0.879   4.687  0.2313  0.0373 -0.2913
14476SOL    HW144869   1.098   0.890   4.601  2.3174  2.5842  0.9329
14476SOL    HW244870   0.978   0.934   4.683 -0.4425 -0.9230 -0.9503
14477SOL     OW44871   2.387   3.204   3.505  0.2761  0.4126 -0.5278
14477SOL    HW144872   2.435   3.128   3.473  2.6318  2.5562 -2.5005
14477SOL    HW244873   2.334   3.232   3.431 -0.4736  0.7987  0.1372
14478SOL     OW44874   1.580   2.420   4.314  0.2022 -0.1448  0.0942
14478SOL    HW144875   1.520   2.445   4.244 -0.0296  0.2124  0.4119
14478SOL    HW244876   1.608   2.331   4.292  1.0048  0.3592 -1.0468
14479SOL     OW44877   0.994   6.477   2.593  0.0386 -0.2057  0.1490
14479SOL    HW144878   1.027   6.565   2.610  1.5761 -0.6576 -0.2971
14479SOL    HW244879   1.003   6.432   2.677  1.1364 -0.4775 -0.0937
14480SOL     OW44880   7.413   4.291   9.608  0.4758  0.0258 -0.7295
14480SOL    HW144881   7.383   4.361   9.666  0.3772 -0.4679 -0.1748
14480SOL    HW244882   7.363   4.214   9.636  2.3671 -0.8815  0.3734
14481SOL     OW44883   1.394   0.008  10.071  0.5088  0.2528 -0.4511
14481SOL    HW144884   1.437  -0.022   9.991  0.5464  0.9270 -0.6829
14481SOL    HW244885   1.454  -0.016  10.141  2.2405  2.9509 -0.9157
14482SOL     OW44886   2.127   4.396  10.199 -0.0798  0.2841  0.3439
14482SOL    HW144887   2.059   4.329  10.202 -0.8215  0.8207 -2.1464
14482SOL    HW244888   2.106   4.454  10.272 -0.3992 -1.2422  1.5279
14483SOL     OW44889   0.950   4.774   8.733  0.3794 -0.2612  0.0454
14483SOL    HW144890   1.024   4.726   8.769  0.5898  0.4721  0.6009
14483SOL    HW244891   0.873   4.722   8.758  0.6556 -0.6780  0.0295
14484SOL     OW44892   0.785   2.532   2.327 -0.1172  0.0909  0.1348
14484SOL    HW144893   0.719   2.495   2.386  0.5757 -0.9817  0.2663
14484SOL    HW244894   0.810   2.459   2.270 -0.7327  1.1047 -1.4678
14485SOL     OW44895   6.489   6.857   4.335 -0.4592  0.2594  0.4193
14485SOL    HW144896   6.396   6.842   4.318 -1.4000  1.2102  3.8877
14485SOL    HW244897   6.517   6.783   4.389  1.5908 -1.2946 -2.4857
14486SOL     OW44898   7.618   3.245   1.364  0.6781 -0.2441  0.0959
14486SOL    HW144899   7.596   3.314   1.427  0.4158 -0.3746  0.1517
14486SOL    HW244900   7.630   3.167   1.418  2.8210  0.1294  0.2365
14487SOL     OW44901   0.151   1.663   2.895  0.0722 -0.0037  0.2198
14487SOL    HW144902   0.245   1.649   2.907  0.3921  3.0845  2.2688
14487SOL    HW244903   0.125   1.719   2.967 -3.0817  0.4854 -1.1204
14488SOL     OW44904   7.108   3.637  10.086 -0.4104 -0.5469  0.5901
14488SOL    HW144905   7.053   3.609  10.160  0.2552  0.9705  1.6930
14488SOL    HW244906   7.054   3.619  10.009 -2.0357 -0.0956  1.5752
14489SOL     OW44907   4.873   2.214  11.511 -0.7741  0.1140  0.1443
14489SOL    HW144908   4.787   2.174  11.506 -0.5617 -0.1694 -2.1483
14489SOL    HW244909   4.925   2.154  11.564 -1.1288 -1.4205 -1.1867
14490SOL     OW44910   6.937   1.486  10.144 -0.3011 -0.4574 -0.4459
14490SOL    HW144911   6.930   1.582  10.142  1.1016 -0.3443 -0.4965
14490SOL    HW244912   7.030   1.468  10.138 -0.6205 -1.8810 -1.9234
14491SOL     OW44913   0.128   5.321   1.022  0.5976 -0.4695 -0.7298
14491SOL    HW144914   0.074   5.243   1.032 -2.4134  1.2859 -1.8858
14491SOL    HW244915   0.159   5.318   0.931  0.3435 -0.2317 -0.8242
14492SOL     OW44916   4.321   0.107   4.494  0.0487  0.1230 -0.2534
14492SOL    HW144917   4.227   0.103   4.474 -0.2393  1.9140  0.5419
14492SOL    HW244918   4.357   0.167   4.430  0.4063  0.4201  0.2184
14493SOL     OW44919   5.007   1.983   0.700  0.5022 -0.0757 -0.2217
14493SOL    HW144920   4.988   2.015   0.788 -0.7863 -0.0883 -0.4784
14493SOL    HW244921   5.103   1.981   0.695  0.6201  2.2175  0.3346
14494SOL     OW44922   0.533   3.298   6.246 -0.6460  0.0152 -0.7296
14494SOL    HW144923   0.470   3.370   6.250 -0.6701 -0.0440 -0.0175
14494SOL    HW244924   0.501   3.234   6.309 -1.2002 -1.1039 -2.0864
14495SOL     OW44925   5.331   6.220   5.628 -0.9948 -0.4699  0.3028
14495SOL    HW144926   5.252   6.170   5.609 -1.0800 -0.4971  0.7066
14495SOL    HW244927   5.336   6.222   5.724 -0.8346  0.0439  0.2917
14496SOL     OW44928   3.304   3.826   4.695 -0.4542  0.1724  0.1992
14496SOL    HW144929   3.258   3.825   4.611 -0.2424 -0.3631  0.0859
14496SOL    HW244930   3.243   3.785   4.756 -0.1301 -0.5451  0.0471
14497SOL     OW44931   6.334   3.863   6.204  0.1695  0.2856 -0.8117
14497SOL    HW144932   6.242   3.857   6.180  0.2990  1.9122 -1.9149
14497SOL    HW244933   6.370   3.776   6.188 -0.7243  0.1865 -2.4650
14498SOL     OW44934   5.465   6.637  10.816 -0.2500  0.6324  0.2300
14498SOL    HW144935   5.371   6.650  10.808 -0.2654  0.6163  0.3758
14498SOL    HW244936   5.474   6.548  10.851 -0.1229 -0.1195 -1.5853
14499SOL     OW44937   0.458   3.433   0.805  0.1080  0.2530 -0.4413
14499SOL    HW144938   0.444   3.479   0.722 -0.4987 -0.4862 -0.7686
14499SOL    HW244939   0.398   3.475   0.867  2.8689  3.0265  0.5663
14500SOL     OW44940   7.774   3.465   5.653 -0.3821  0.3294 -0.7348
14500SOL    HW144941   7.845   3.400   5.652  0.5648  1.2269  1.4635
14500SOL    HW244942   7.694   3.413   5.651  0.3529 -0.9660  0.9377
14501SOL     OW44943   4.402   1.687   1.891  0.3111  0.0201  0.0802
14501SOL    HW144944   4.402   1.591   1.887  0.3511 -0.0374  1.1320
14501SOL    HW244945   4.325   1.713   1.839 -0.1194 -0.6178  0.3823
14502SOL     OW44946   3.878   1.924   0.652 -0.3749 -0.3738  0.0930
14502SOL    HW144947   3.871   1.828   0.659  1.2375 -0.5733 -0.7006
14502SOL    HW244948   3.894   1.941   0.559  0.8536  0.5384  0.4435
14503SOL     OW44949   2.465   1.287   7.749  0.0734  0.0245 -0.2583
14503SOL    HW144950   2.465   1.236   7.830 -0.7392  1.1532  0.4743
14503SOL    HW244951   2.536   1.250   7.697 -1.0639 -2.5119 -0.1748
14504SOL     OW44952   2.295   4.322   6.824 -0.3760  0.5539  0.0966
14504SOL    HW144953   2.348   4.263   6.772  0.7700  0.3250  1.4410
14504SOL    HW244954   2.239   4.265   6.876 -0.2006  0.6911  0.4420
14505SOL     OW44955   4.250   0.231   2.940  0.1472 -0.0637  0.2165
14505SOL    HW144956   4.262   0.315   2.896 -1.7284 -0.3293 -0.9388
14505SOL    HW244957   4.247   0.253   3.034  1.0666  0.9472  0.0276
14506SOL     OW44958   5.370   5.814   6.109  1.2351 -0.0482 -0.8454
14506SOL    HW144959   5.446   5.858   6.070  1.5732  0.2901  0.1697
14506SOL    HW244960   5.395   5.800   6.200 -0.7168  1.9916  0.0973
14507SOL     OW44961   4.684   2.286   3.870  0.3870 -0.1257 -0.1790
14507SOL    HW144962   4.606   2.266   3.922  1.0028 -2.2786  0.0321
14507SOL    HW244963   4.664   2.249   3.784  0.0391  1.9346 -1.0230
14508SOL     OW44964   0.300   0.479   7.287  0.0795 -0.5060 -0.4546
14508SOL    HW144965   0.302   0.525   7.371  0.4210  0.2081 -0.8423
14508SOL    HW244966   0.392   0.464   7.267 -0.0507 -2.5620  0.2944
14509SOL     OW44967   7.037   7.971  11.996 -0.2321 -0.5185  0.3716
14509SOL    HW144968   7.106   7.911  12.023  0.3223  0.6327  1.6444
14509SOL    HW244969   7.069   8.058  12.020 -0.7287  0.4077 -1.9679
14510SOL     OW44970   2.129   7.343  11.441  0.0674 -0.2129  0.1351
14510SOL    HW144971   2.096   7.272  11.386  1.9297 -1.4281  0.4883
14510SOL    HW244972   2.189   7.392  11.384 -0.1749  0.2655  0.2841
14511SOL     OW44973   6.937   0.447   2.087  0.3405 -0.2014 -0.0095
14511SOL    HW144974   6.902   0.535   2.088  0.2350 -0.2195 -0.9510
14511SOL    HW244975   6.968   0.434   1.997  0.7135 -0.9803  0.2150
14512SOL     OW44976   0.683   2.856   6.046 -0.4247 -0.1518  0.2663
14512SOL    HW144977   0.755   2.872   5.986 -0.9832 -1.8702 -0.9404
14512SOL    HW244978   0.633   2.937   6.047  0.8730  0.6710  0.2304
14513SOL     OW44979   6.977   0.655   4.192 -0.0035  0.1831  0.6749
14513SOL    HW144980   7.032   0.686   4.263  0.1252  2.0432 -0.1925
14513SOL    HW244981   7.000   0.710   4.117 -2.0851  0.1475 -0.0612
14514SOL     OW44982   4.717   2.363   8.918 -0.1173  0.3330  0.1369
14514SOL    HW144983   4.739   2.271   8.902  1.0429  0.2532  1.9177
14514SOL    HW244984   4.621   2.364   8.921 -0.1437 -0.9165  0.4833
14515SOL     OW44985   2.585   1.217  11.810 -0.0585 -1.0591 -0.9515
14515SOL    HW144986   2.556   1.147  11.870 -0.7418 -0.0157 -0.0244
14515SOL    HW244987   2.677   1.233  11.835 -0.5580 -0.0922  0.4115
14516SOL     OW44988   0.253   6.363   6.622 -0.3394  0.6987  0.3981
14516SOL    HW144989   0.188   6.303   6.586 -0.7195  1.0267  0.5350
14516SOL    HW244990   0.245   6.353   6.717  0.1174  0.4137  0.4093
14517SOL     OW44991   4.338   4.684  10.372  0.1043 -0.0954 -0.2710
14517SOL    HW144992   4.324   4.767  10.327  1.4037  0.0475 -0.4557
14517SOL    HW244993   4.415   4.699  10.427 -0.7084 -0.6488  1.0628
14518SOL     OW44994   3.233   4.032   2.534 -0.2531  0.4480 -0.2804
14518SOL    HW144995   3.281   4.007   2.613 -0.2927 -3.1841 -1.2343
14518SOL    HW244996   3.300   4.059   2.471  0.1388 -0.2589 -0.1727
14519SOL     OW44997   0.970   7.262   6.352 -0.8951  0.1129  0.0329
14519SOL    HW144998   1.039   7.278   6.417  0.0746 -0.2514 -0.8822
14519SOL    HW244999   0.998   7.312   6.275 -2.5225  1.3322  0.1700
14520SOL     OW45000   4.996   4.727   6.959  0.3178  0.1723  0.2964
14520SOL    HW145001   4.963   4.697   6.874  0.9442  1.8061 -0.5642
14520SOL    HW245002   4.994   4.649   7.015  0.1259 -0.9921 -1.2835
14521SOL     OW45003   1.715   1.250   6.492  0.3543  0.1298 -0.1267
14521SOL    HW145004   1.664   1.294   6.560  1.2485  0.9807  0.0082
14521SOL    HW245005   1.768   1.187   6.540  1.1463  0.8818  0.0060
14522SOL     OW45006   7.861   3.327  11.260 -0.7770  0.2725  0.0363
14522SOL    HW145007   7.859   3.420  11.237  0.5746 -0.1925 -2.2985
14522SOL    HW245008   7.777   3.311  11.304  0.2547  3.2371  3.5687
14523SOL     OW45009   1.958   3.292   4.752  0.4177  0.0866 -0.2270
14523SOL    HW145010   1.900   3.234   4.704 -0.7254  0.8794  0.1436
14523SOL    HW245011   1.996   3.349   4.686  1.3673 -0.9123 -0.5624
14524SOL     OW45012   5.711   0.078  11.209  0.0328 -0.0774  0.0007
14524SOL    HW145013   5.719   0.044  11.120  2.3140 -1.0211  0.5021
14524SOL    HW245014   5.799   0.073  11.245 -0.8968 -0.1175  2.4796
14525SOL     OW45015   5.867   7.814   0.690  0.2110 -0.2233 -0.1576
14525SOL    HW145016   5.880   7.783   0.779  1.4135  1.4478  0.2917
14525SOL    HW245017   5.775   7.842   0.687 -0.2735 -1.6831  0.0563
14526SOL     OW45018   5.998   4.969  11.850  0.0082  0.6255  0.2909
14526SOL    HW145019   5.983   4.883  11.810  0.8829  0.4155  0.3916
14526SOL    HW245020   5.910   5.002  11.870 -0.4796  0.6608 -1.6199
14527SOL     OW45021   2.430   2.109   4.474  0.9590  0.1781 -0.1432
14527SOL    HW145022   2.459   2.018   4.475  0.5236  0.0240 -1.0151
14527SOL    HW245023   2.353   2.109   4.532  0.2637 -0.2583 -1.0439
14528SOL     OW45024   3.825   1.834   9.265 -0.5674 -0.2704 -0.1386
14528SOL    HW145025   3.833   1.743   9.239 -0.4665 -0.9132  1.9908
14528SOL    HW245026   3.795   1.879   9.186 -1.9695 -2.3572 -0.8583
14529SOL     OW45027   0.018   4.874   9.892 -0.5647  0.2927 -0.1793
14529SOL    HW145028  -0.064   4.875   9.941 -0.0288 -0.6994  0.7933
14529SOL    HW245029   0.032   4.782   9.870 -0.3835  0.6235 -1.5224
14530SOL     OW45030   2.162   3.006   4.549  0.3516  0.0471 -0.5369
14530SOL    HW145031   2.077   3.041   4.575  0.1950  1.7739 -3.0029
14530SOL    HW245032   2.148   2.969   4.462  1.6833 -1.6467 -0.0813
14531SOL     OW45033   7.670   1.749   8.727  0.1214 -0.2515 -0.4119
14531SOL    HW145034   7.593   1.741   8.672 -1.1941 -0.5530  1.3780
14531SOL    HW245035   7.724   1.816   8.684 -0.9193 -0.3352 -1.9109
14532SOL     OW45036   6.082   4.700   6.406  0.1571  0.4937 -0.1744
14532SOL    HW145037   6.069   4.710   6.312 -1.3688  1.1875  0.0828
14532SOL    HW245038   6.039   4.776   6.445 -0.5721 -0.5537  1.1633
14533SOL     OW45039   5.439   2.167   9.586  0.0717 -0.6281  0.1376
14533SOL    HW145040   5.437   2.247   9.638  0.4271 -0.3449 -0.2786
14533SOL    HW245041   5.382   2.185   9.511 -0.2596 -0.9531  0.3068
14534SOL     OW45042   4.579   6.181  11.227  0.0783  0.0164 -0.9264
14534SOL    HW145043   4.572   6.268  11.267 -1.6673 -0.1014 -0.9199
14534SOL    HW245044   4.509   6.130  11.268  0.4405 -1.1136 -1.6703
14535SOL     OW45045   0.117   6.423   4.156 -0.0722  0.2987  0.2775
14535SOL    HW145046   0.117   6.519   4.152 -1.1526  0.2812 -2.0082
14535SOL    HW245047   0.171   6.402   4.231  1.4580  2.6865 -0.0445
14536SOL     OW45048   0.949   1.879   6.021 -0.4333  0.4149  0.4066
14536SOL    HW145049   0.958   1.974   6.033  1.5476  0.5280 -1.3486
14536SOL    HW245050   0.861   1.867   5.987  0.4639  2.1858 -3.0409
14537SOL     OW45051   5.031   3.871   0.170 -0.3133 -0.9802  0.0539
14537SOL    HW145052   4.958   3.924   0.139  0.6723  0.4892  0.1613
14537SOL    HW245053   5.056   3.817   0.094 -0.3527 -0.1702 -0.5444
14538SOL     OW45054   0.544   5.091  10.314  0.2494 -0.1149 -0.0448
14538SOL    HW145055   0.611   5.144  10.270  0.1378 -0.5199 -0.7192
14538SOL    HW245056   0.461   5.136  10.295  0.2063 -0.2644 -0.2170
14539SOL     OW45057   7.854   6.573   5.148 -0.2425 -0.4859  0.1632
14539SOL    HW145058   7.931   6.560   5.093  0.1202 -1.4262  0.8652
14539SOL    HW245059   7.785   6.522   5.105 -0.1280 -0.6996  0.2304
14540SOL     OW45060   6.891   7.849   9.532 -0.2811 -0.1314  0.2752
14540SOL    HW145061   6.841   7.783   9.484 -1.2623  0.8197 -0.0504
14540SOL    HW245062   6.872   7.831   9.624 -2.0840  0.8076  0.1439
14541SOL     OW45063   4.886   5.219   2.545  0.3142  0.2373  0.7089
14541SOL    HW145064   4.844   5.302   2.522  1.2579 -0.1000 -2.8040
14541SOL    HW245065   4.953   5.243   2.608  0.5914  2.1974 -0.2565
14542SOL     OW45066   4.381   7.659  10.569 -1.1375  0.1587  1.0896
14542SOL    HW145067   4.360   7.722  10.500  0.7565  1.2966  1.4867
14542SOL    HW245068   4.349   7.700  10.650  0.2624  0.7571  1.3731
14543SOL     OW45069   1.541   4.685   7.193  0.0908  0.1344  0.2676
14543SOL    HW145070   1.505   4.627   7.127  1.8475  0.5464 -1.1455
14543SOL    HW245071   1.635   4.666   7.193  0.1141 -0.1792  3.0089
14544SOL     OW45072   6.374   3.769  10.692  0.0868 -0.1577 -0.6463
14544SOL    HW145073   6.311   3.710  10.651 -0.4427  1.6465 -2.5699
14544SOL    HW245074   6.376   3.742  10.784 -0.9389 -2.4097 -1.2273
14545SOL     OW45075   0.902   3.014   4.977  0.4115  0.1825 -0.4313
14545SOL    HW145076   0.983   3.028   4.929  0.2479  0.1719 -0.7137
14545SOL    HW245077   0.930   3.002   5.068  0.7056  0.4064 -0.4901
14546SOL     OW45078   4.790   6.261   2.573  0.3108 -0.2941  0.1998
14546SOL    HW145079   4.732   6.303   2.509  1.6252  2.9396  0.9753
14546SOL    HW245080   4.850   6.208   2.519 -0.0023  0.5650 -1.0473
14547SOL     OW45081   6.907   1.243  11.195 -0.6814 -0.0158  0.1684
14547SOL    HW145082   6.956   1.279  11.122 -0.4897 -1.9385 -0.7160
14547SOL    HW245083   6.949   1.158  11.213 -0.8374  0.3072  2.3944
14548SOL     OW45084   1.242   7.395   8.940 -0.4677 -0.2908  0.0084
14548SOL    HW145085   1.198   7.453   9.002 -0.7580  1.2769 -1.5704
14548SOL    HW245086   1.268   7.319   8.992 -4.5908 -1.1326  1.1930
14549SOL     OW45087   5.004   7.935  10.285 -0.3444 -0.0625 -0.1652
14549SOL    HW145088   5.074   7.870  10.281 -1.1752 -1.2160  2.1865
14549SOL    HW245089   5.012   7.984  10.203  1.7613 -1.6188 -0.9792
14550SOL     OW45090   2.109   7.309   7.354 -0.2978 -0.4046  0.1801
14550SOL    HW145091   2.059   7.381   7.316 -1.3639 -0.8290  0.7351
14550SOL    HW245092   2.181   7.295   7.293 -1.2739 -0.2643 -1.0523
14551SOL     OW45093   1.004   7.824   8.731 -0.5994 -0.1243 -0.4671
14551SOL    HW145094   0.994   7.792   8.641 -3.7143  0.5807 -0.4758
14551SOL    HW245095   1.039   7.913   8.721  0.8667 -0.7088 -0.8215
14552SOL     OW45096   1.298   7.077   8.650 -0.3594  0.0475 -0.2204
14552SOL    HW145097   1.233   7.147   8.659 -0.1091  0.2045  0.4147
14552SOL    HW245098   1.247   7.000   8.626 -0.8292  0.0864  0.6207
14553SOL     OW45099   6.815   0.174   2.546 -0.4067 -0.1203  0.3673
14553SOL    HW145100   6.897   0.194   2.501  0.4604 -0.9540  1.5270
14553SOL    HW245101   6.770   0.113   2.487  0.2340 -0.3763  0.1367
14554SOL     OW45102   4.200   5.769   2.351 -0.0344 -0.5933 -0.1850
14554SOL    HW145103   4.179   5.715   2.427 -0.5943 -0.9535 -0.5872
14554SOL    HW245104   4.174   5.858   2.377  0.3966 -0.6011  0.2826
14555SOL     OW45105   0.370   6.809   0.260  0.3891 -0.2570  0.1762
14555SOL    HW145106   0.377   6.717   0.238 -1.6277  0.1427 -2.7732
14555SOL    HW245107   0.278   6.820   0.287 -0.3074  1.2744 -2.4472
14556SOL     OW45108   6.817   5.227   4.469 -0.4214  0.5888 -0.4658
14556SOL    HW145109   6.741   5.236   4.412 -0.8353  2.1782  0.2843
14556SOL    HW245110   6.781   5.189   4.550 -0.0970 -0.2277 -0.6883
14557SOL     OW45111   6.739   5.678   2.506 -0.6338  0.2019  0.3032
14557SOL    HW145112   6.655   5.685   2.461 -0.4863 -0.2354 -0.0473
14557SOL    HW245113   6.791   5.620   2.451 -0.0124  0.6720  0.3811
14558SOL     OW45114   7.371   7.655  12.407 -0.3174  0.2984  0.0860
14558SOL    HW145115   7.309   7.674  12.337  0.7136  0.5534 -0.7680
14558SOL    HW245116   7.406   7.568  12.386  0.2468  0.5195  0.1040
14559SOL     OW45117   5.047   6.480  11.534  0.2023 -0.6137 -0.3012
14559SOL    HW145118   4.996   6.432  11.468  0.5118 -1.4128  0.0231
14559SOL    HW245119   4.985   6.494  11.606  0.1922 -0.8136 -0.2684
14560SOL     OW45120   2.187   4.697   6.566  0.1390 -0.2962 -0.1085
14560SOL    HW145121   2.158   4.639   6.637  0.6231  0.4172  0.6906
14560SOL    HW245122   2.127   4.771   6.568  0.7990  0.2457  0.2796
14561SOL     OW45123   7.502   2.582   8.298 -0.3448 -0.0338  0.0088
14561SOL    HW145124   7.414   2.548   8.286 -1.3232  2.3485  0.0218
14561SOL    HW245125   7.525   2.620   8.213  1.2969 -1.8808 -0.4405
14562SOL     OW45126   4.153   1.259   9.627 -0.2161 -0.1588 -0.5542
14562SOL    HW145127   4.153   1.348   9.593  0.6960 -0.1799 -0.6179
14562SOL    HW245128   4.140   1.203   9.550  0.3482 -0.1320 -0.6723
14563SOL     OW45129   2.219   5.515   4.943  0.1586 -0.3037  0.0227
14563SOL    HW145130   2.314   5.528   4.932  0.4717 -2.4785 -0.2886
14563SOL    HW245131   2.184   5.515   4.854 -0.5810  2.7756  0.1844
14564SOL     OW45132   5.485   6.621   9.148 -0.2911  0.2054  0.3187
14564SOL    HW145133   5.475   6.543   9.094  1.1859  0.6427 -0.6401
14564SOL    HW245134   5.470   6.694   9.089  0.6791  0.6821  0.6436
14565SOL     OW45135   2.060   0.943   5.342 -0.2655 -0.1197 -0.1610
14565SOL    HW145136   2.071   0.974   5.253 -1.3742 -0.8887 -0.5900
14565SOL    HW245137   2.022   0.856   5.333 -1.6484  0.3050  1.0554
14566SOL     OW45138   3.666   2.759   5.606  0.3295  0.2176 -0.1384
14566SOL    HW145139   3.635   2.762   5.516  1.1724 -1.0355 -0.4965
14566SOL    HW245140   3.616   2.826   5.651  1.5347  2.5413 -2.0365
14567SOL     OW45141   2.930   3.069   9.800  0.0793  0.0571  0.2641
14567SOL    HW145142   2.871   3.075   9.875  0.4752  0.4648  0.5448
14567SOL    HW245143   2.999   3.009   9.829 -0.4360 -0.8012 -0.2322
14568SOL     OW45144   0.401   1.930   9.784 -0.0800  0.0844 -0.2820
14568SOL    HW145145   0.352   1.889   9.712 -0.5545 -0.6365  0.4416
14568SOL    HW245146   0.344   1.920   9.860  0.3601  0.9723  0.1746
14569SOL     OW45147   6.600   5.442   8.940  0.5808  0.5995  0.3239
14569SOL    HW145148   6.520   5.393   8.920  2.0903 -2.5046  1.3175
14569SOL    HW245149   6.625   5.482   8.856 -0.5605 -0.6807 -0.6720
14570SOL     OW45150   0.104   0.255   5.633 -0.2340  0.1547 -0.1192
14570SOL    HW145151   0.012   0.234   5.646 -0.6698  1.1497 -1.4011
14570SOL    HW245152   0.152   0.181   5.672 -1.5232  0.1372  1.5183
14571SOL     OW45153   0.038   6.311   7.327  0.5718 -0.1659  0.2677
14571SOL    HW145154   0.091   6.349   7.397 -0.2274 -0.5862  1.1167
14571SOL    HW245155  -0.047   6.295   7.367 -0.8579  2.1901 -1.5245
14572SOL     OW45156   7.502   7.699   9.977 -0.0341 -0.4805 -0.3561
14572SOL    HW145157   7.408   7.706   9.963 -0.0038 -1.2076 -1.0298
14572SOL    HW245158   7.514   7.614  10.019  0.3788 -0.7275 -0.9577
14573SOL     OW45159   3.505   2.464   0.521 -0.2202  0.2464 -0.2561
14573SOL    HW145160   3.448   2.537   0.546  0.8738  1.3511 -0.8822
14573SOL    HW245161   3.556   2.497   0.447 -0.0141 -1.3219 -0.8574
14574SOL     OW45162   2.053   7.113  11.047 -0.1666  0.4571 -0.2426
14574SOL    HW145163   2.030   7.204  11.030 -0.1786  0.3219 -0.9908
14574SOL    HW245164   1.970   7.066  11.041 -0.1027  0.3441 -0.2378
14575SOL     OW45165   5.018   0.752   6.325  0.4388 -0.0959 -0.6171
14575SOL    HW145166   5.005   0.670   6.277 -0.6375  0.1758 -0.8029
14575SOL    HW245167   4.941   0.761   6.381  0.4598  0.8676 -0.7179
14576SOL     OW45168   5.427   7.891   3.734 -0.3367 -0.3887 -0.5913
14576SOL    HW145169   5.466   7.960   3.681  1.2150  0.6080  1.6821
14576SOL    HW245170   5.473   7.811   3.707  0.4593  0.1012 -0.7058
14577SOL     OW45171   7.399   4.200   7.265  0.2164 -0.2617  0.4494
14577SOL    HW145172   7.495   4.197   7.256  0.2418 -0.0757  0.6598
14577SOL    HW245173   7.383   4.207   7.359 -0.0777 -2.6632  0.6248
14578SOL     OW45174   2.630   2.571   2.295 -0.1937 -0.4892 -0.0710
14578SOL    HW145175   2.644   2.661   2.324 -0.5541 -0.5748  0.3842
14578SOL    HW245176   2.568   2.535   2.358 -1.3393 -0.5558 -1.2121
14579SOL     OW45177   6.305   6.776  12.083  0.2778 -0.5748 -0.3707
14579SOL    HW145178   6.240   6.787  12.153  1.5338  2.0420  0.5186
14579SOL    HW245179   6.381   6.826  12.113  2.1755 -2.2789 -2.0611
14580SOL     OW45180   6.658   5.931   9.108  0.3090  0.5371  0.4413
14580SOL    HW145181   6.723   5.996   9.081  0.5382  0.8322  1.6247
14580SOL    HW245182   6.689   5.901   9.194 -0.0818 -0.7493  0.1553
14581SOL     OW45183   5.365   2.364   2.702 -0.2342  0.6969 -0.2361
14581SOL    HW145184   5.273   2.387   2.698 -0.3054  0.3650 -0.6128
14581SOL    HW245185   5.401   2.418   2.772 -0.5386  1.4270 -0.6356
14582SOL     OW45186   3.325   7.150   7.905 -0.1633  0.0389  0.0523
14582SOL    HW145187   3.307   7.238   7.872  0.0146  0.0197 -0.0997
14582SOL    HW245188   3.241   7.104   7.901 -0.5959  0.6478  1.5070
14583SOL     OW45189   0.740   6.584   0.284 -0.3296 -0.3125  0.4268
14583SOL    HW145190   0.645   6.568   0.284 -0.6918  1.5411  1.7991
14583SOL    HW245191   0.770   6.551   0.369  0.4811 -1.8631 -0.4232
14584SOL     OW45192   6.862   0.235   4.623  0.4146  0.3596 -0.6137
14584SOL    HW145193   6.957   0.229   4.633  0.3460 -2.6942 -1.1039
14584SOL    HW245194   6.827   0.208   4.708 -0.0466  1.1528 -0.5401
14585SOL     OW45195   3.292   4.781   1.496  0.3540 -0.1491  0.3983
14585SOL    HW145196   3.284   4.743   1.409  1.4821  0.2113  0.1214
14585SOL    HW245197   3.243   4.721   1.553 -0.4413 -0.3541 -0.4804
14586SOL     OW45198   3.869   7.201  10.708 -0.3308  0.0468 -0.1045
14586SOL    HW145199   3.818   7.280  10.730  0.4920  0.8761 -1.0840
14586SOL    HW245200   3.833   7.171  10.625 -1.6145 -1.4972  0.9552
14587SOL     OW45201   7.134   1.823   3.318 -0.2645  0.1686  0.2376
14587SOL    HW145202   7.053   1.774   3.309 -0.1931  0.2942 -1.4238
14587SOL    HW245203   7.113   1.911   3.288  0.4346  0.2585 -0.0013
14588SOL     OW45204   6.217   5.753  12.119 -0.8640  0.3593  0.1251
14588SOL    HW145205   6.297   5.775  12.070 -0.4091 -1.5639 -0.1069
14588SOL    HW245206   6.244   5.754  12.211 -0.1555 -1.5324 -0.0065
14589SOL     OW45207   1.904   3.910   7.241 -0.3430  0.1305  0.1461
14589SOL    HW145208   1.967   3.897   7.312 -0.0765  0.0179 -0.1107
14589SOL    HW245209   1.862   3.993   7.261 -0.7125 -0.1985  0.7761
14590SOL     OW45210   5.754   2.095   9.528 -0.0445  0.3939  0.2619
14590SOL    HW145211   5.803   2.136   9.599 -1.0083 -1.0750  1.8487
14590SOL    HW245212   5.667   2.135   9.533  0.0323  0.6764 -0.4797
14591SOL     OW45213   3.690   5.607   6.363  0.4227 -0.1088  0.1321
14591SOL    HW145214   3.768   5.561   6.393  0.1226 -2.1082 -1.8338
14591SOL    HW245215   3.637   5.618   6.442  0.3345 -3.6745  0.7505
14592SOL     OW45216   3.491   6.992   4.654 -0.1900  0.2981 -0.3075
14592SOL    HW145217   3.555   6.931   4.615 -1.2854  0.1094 -1.9158
14592SOL    HW245218   3.517   7.078   4.620 -0.7318  0.2275 -0.9249
14593SOL     OW45219   1.698   2.044   7.623  0.3043  0.5357 -0.3138
14593SOL    HW145220   1.694   2.032   7.528 -1.3804 -1.5902 -0.0445
14593SOL    HW245221   1.620   2.000   7.656 -1.0703  4.1610  1.8455
14594SOL     OW45222   1.489   0.728   8.241  0.6303  0.4483 -0.1268
14594SOL    HW145223   1.530   0.655   8.195  1.7095  0.2831  1.0473
14594SOL    HW245224   1.476   0.795   8.173  0.1239 -0.6034 -1.1063
14595SOL     OW45225   3.198   5.049   7.300 -0.3750  0.0316  0.4802
14595SOL    HW145226   3.219   5.126   7.248 -2.5726 -0.0389 -0.5986
14595SOL    HW245227   3.252   4.979   7.261  1.0085  0.7961  0.9416
14596SOL     OW45228   5.162   4.644  11.279 -0.4110 -0.1377  0.0438
14596SOL    HW145229   5.093   4.624  11.342 -0.7209  1.9132  0.4204
14596SOL    HW245230   5.186   4.559  11.242 -2.1754 -1.0614  0.8946
14597SOL     OW45231   1.640   5.023   5.346  0.3908 -0.5209 -0.4836
14597SOL    HW145232   1.606   4.937   5.323  0.2387 -0.4271 -0.6116
14597SOL    HW245233   1.700   5.006   5.418 -2.5037 -0.3381  2.2217
14598SOL     OW45234   5.736   1.361   9.419  0.0239  0.0955 -0.5099
14598SOL    HW145235   5.690   1.436   9.380  0.8465  0.9378  0.1041
14598SOL    HW245236   5.696   1.351   9.505  0.3466  0.2315 -0.3428
14599SOL     OW45237   2.288   4.697   8.856  0.5788 -0.1330 -0.0254
14599SOL    HW145238   2.292   4.766   8.789  1.1590  1.2735  1.3827
14599SOL    HW245239   2.196   4.674   8.861  0.4583  0.1021 -0.9456
14600SOL     OW45240   3.050   0.425   5.333  0.6562  0.2070 -0.5684
14600SOL    HW145241   3.118   0.418   5.266  0.3357  0.3899 -0.9184
14600SOL    HW245242   2.980   0.368   5.301  0.5882  0.1332 -0.2834
14601SOL     OW45243   5.678   7.007   2.353 -0.4543  0.6509  0.1805
14601SOL    HW145244   5.689   7.024   2.259 -2.5834 -0.8884 -0.4334
14601SOL    HW245245   5.740   6.936   2.372 -0.4638  0.5313 -0.2210
14602SOL     OW45246   4.083   5.240   9.562  0.3875  0.0281  0.3121
14602SOL    HW145247   4.035   5.161   9.534  0.5156 -0.1770  0.6573
14602SOL    HW245248   4.018   5.310   9.556 -0.5136 -0.5331  2.4382
14603SOL     OW45249   5.863   0.682   5.567 -0.0743 -0.1707  0.3248
14603SOL    HW145250   5.835   0.648   5.482 -1.5354 -0.8342  1.0173
14603SOL    HW245251   5.885   0.773   5.551 -1.6118  0.0851 -0.5321
14604SOL     OW45252   3.380   7.462   0.429  0.8114  0.0682 -0.2693
14604SOL    HW145253   3.432   7.463   0.349 -2.0594 -0.0351 -2.3117
14604SOL    HW245254   3.305   7.519   0.409 -1.2531 -1.8848  1.3940
14605SOL     OW45255   6.518   1.163   4.282 -0.1426  0.0856  0.2836
14605SOL    HW145256   6.566   1.222   4.225 -1.2924  0.6766 -0.1002
14605SOL    HW245257   6.430   1.160   4.245 -0.4179 -0.9600  0.9731
14606SOL     OW45258   7.710   0.874   9.596  0.4332 -0.0872  0.2479
14606SOL    HW145259   7.800   0.880   9.627 -0.0352  0.2374  1.6245
14606SOL    HW245260   7.716   0.886   9.501  2.0106 -1.8301  0.0789
14607SOL     OW45261   0.235   6.388   0.870  0.3309 -0.0664  0.3043
14607SOL    HW145262   0.166   6.419   0.929 -0.1332  0.6491 -0.5962
14607SOL    HW245263   0.287   6.466   0.851  0.5021 -0.2981 -0.2023
14608SOL     OW45264   0.165   6.735   5.606 -0.0440 -0.0921 -0.2046
14608SOL    HW145265   0.086   6.765   5.652 -0.3219 -1.4071  0.2016
14608SOL    HW245266   0.133   6.674   5.540  0.6967 -1.6083  0.7730
14609SOL     OW45267   6.189   1.824   0.961 -0.2124 -0.1327 -0.0534
14609SOL    HW145268   6.232   1.764   1.022 -0.4688  1.2946  1.6005
14609SOL    HW245269   6.100   1.833   0.995 -0.2018  1.1271 -0.3056
14610SOL     OW45270   2.527   4.912   2.131  0.0076  0.1458  0.1996
14610SOL    HW145271   2.610   4.943   2.167  0.5093  0.1168 -0.9137
14610SOL    HW245272   2.480   4.993   2.107 -0.5167  0.1863  1.2691
14611SOL     OW45273   4.863   3.095   1.265  0.4660  0.4170  0.4988
14611SOL    HW145274   4.939   3.153   1.259  0.6621  0.0520 -0.9589
14611SOL    HW245275   4.886   3.032   1.334  1.4862  0.3248  0.0923
14612SOL     OW45276   2.179   4.448  11.983 -0.2261 -0.1139  0.3507
14612SOL    HW145277   2.174   4.353  11.966  0.3951 -0.4090  1.6768
14612SOL    HW245278   2.089   4.479  11.971 -0.9582 -1.3197  2.2178
14613SOL     OW45279   5.757   5.822  12.388 -0.4851  0.6377 -0.0779
14613SOL    HW145280   5.831   5.859  12.436 -0.5739  0.0460  0.5451
14613SOL    HW245281   5.796   5.756  12.330 -0.5047  0.4149  0.1579
14614SOL     OW45282   1.294   5.925  11.173 -0.1239 -0.3792 -0.2732
14614SOL    HW145283   1.356   5.881  11.231 -0.1409 -0.4822 -0.3342
14614SOL    HW245284   1.261   5.856  11.116 -0.3740 -0.3434 -0.1705
14615SOL     OW45285   6.949   6.045   5.714 -0.6596 -0.0679 -0.3035
14615SOL    HW145286   7.008   5.970   5.709  0.2667  0.6550 -0.4764
14615SOL    HW245287   6.979   6.094   5.790 -2.2535 -0.6696  0.7654
14616SOL     OW45288   2.075   0.461   7.156  0.5536 -0.4983 -0.0942
14616SOL    HW145289   2.126   0.523   7.208 -0.6581  1.3789 -0.9898
14616SOL    HW245290   1.985   0.473   7.186  0.1696 -1.1594 -0.9336
14617SOL     OW45291   5.605   2.769   6.478 -0.4509 -0.1710  0.3637
14617SOL    HW145292   5.692   2.746   6.509  1.0997  0.3251 -3.1239
14617SOL    HW245293   5.600   2.864   6.490  0.6544  0.2122 -1.8216
14618SOL     OW45294   1.332   1.244   9.100  0.2020  0.0048  0.5233
14618SOL    HW145295   1.380   1.249   9.183  1.0756 -1.2706  0.1385
14618SOL    HW245296   1.299   1.154   9.097  3.4722 -1.3664 -2.1582
14619SOL     OW45297   7.181   6.286   1.315  0.5156 -0.3764 -0.3386
14619SOL    HW145298   7.131   6.227   1.257  3.4230 -3.9615  0.4009
14619SOL    HW245299   7.240   6.332   1.256  0.8258 -1.1235 -0.6337
14620SOL     OW45300   3.184   5.814   7.400  0.5427 -0.0529  0.9782
14620SOL    HW145301   3.234   5.766   7.334  0.9273  2.2079 -0.5082
14620SOL    HW245302   3.240   5.887   7.424 -0.6506  0.6100  1.8838
14621SOL     OW45303   1.714   6.798   7.793 -0.1239 -0.6148 -0.1519
14621SOL    HW145304   1.793   6.754   7.762 -0.7356 -0.7499 -1.5865
14621SOL    HW245305   1.669   6.732   7.847 -0.6173 -1.4971 -1.5934
14622SOL     OW45306   2.760   3.480   0.501 -0.5713  0.1373  0.5458
14622SOL    HW145307   2.790   3.441   0.583 -1.1862  0.1713  0.7898
14622SOL    HW245308   2.667   3.499   0.515 -1.1692 -1.5703 -0.8098
14623SOL     OW45309   5.313   0.878   4.149  0.8366  0.3996 -0.3352
14623SOL    HW145310   5.392   0.828   4.130  0.3582 -0.0361 -1.2000
14623SOL    HW245311   5.262   0.822   4.208  0.7092  0.2569 -0.5835
14624SOL     OW45312   3.815   5.523   3.087 -0.0996  0.2644 -0.0040
14624SOL    HW145313   3.909   5.508   3.093 -0.0279  1.0257  1.1873
14624SOL    HW245314   3.784   5.520   3.178 -1.6637 -2.4681 -0.5223
14625SOL     OW45315   2.266   3.989  11.936  0.0228  0.1085 -0.1352
14625SOL    HW145316   2.239   3.955  11.850 -0.0337  0.7385 -0.3737
14625SOL    HW245317   2.323   3.922  11.971  0.5270  0.1036 -0.9331
14626SOL     OW45318   2.739   2.268   2.817 -0.0170  0.4731  0.4039
14626SOL    HW145319   2.659   2.243   2.772 -0.5835  2.2613  0.3677
14626SOL    HW245320   2.722   2.355   2.852  1.9025  0.8974  0.4200
14627SOL     OW45321   1.862   1.472   1.949 -1.0000 -0.6602 -0.0602
14627SOL    HW145322   1.875   1.522   2.030 -0.6458 -0.7302 -0.0690
14627SOL    HW245323   1.874   1.381   1.975  1.8458 -0.5734 -0.6439
14628SOL     OW45324   0.328   1.593   8.530 -0.0206  0.3579 -0.3727
14628SOL    HW145325   0.326   1.576   8.624 -0.3029 -0.2612 -0.4875
14628SOL    HW245326   0.236   1.587   8.503  0.1663 -0.5030 -0.8626
14629SOL     OW45327   5.392   2.673  12.449  0.2945 -0.1835  0.1044
14629SOL    HW145328   5.328   2.714  12.391 -0.0857  3.4545  2.6848
14629SOL    HW245329   5.343   2.655  12.530  1.7733 -0.5448  0.9664
14630SOL     OW45330   2.198   4.762   3.698  0.6596  0.0398  0.1686
14630SOL    HW145331   2.234   4.790   3.614  1.7289 -0.1242  0.5525
14630SOL    HW245332   2.117   4.716   3.676  1.0199 -0.1518 -0.7792
14631SOL     OW45333   3.409   3.320   3.040 -0.0099 -0.8460  0.4657
14631SOL    HW145334   3.471   3.359   2.978  0.7422  0.5786  2.0014
14631SOL    HW245335   3.464   3.289   3.112 -1.0113  0.1828  1.7349
14632SOL     OW45336   1.097   7.100   9.887  0.2794  0.7388  0.4134
14632SOL    HW145337   1.157   7.119   9.815 -0.0256 -0.2280 -0.1107
14632SOL    HW245338   1.081   7.006   9.880 -1.4116  1.0023  0.4617
14633SOL     OW45339   4.859   1.910   6.157 -0.3307  0.5265  0.2772
14633SOL    HW145340   4.826   1.968   6.226 -1.2367  0.3592  0.0018
14633SOL    HW245341   4.800   1.925   6.083 -1.0120 -1.2137  0.4112
14634SOL     OW45342   4.442   5.854  10.406  0.1404  0.3786 -0.0439
14634SOL    HW145343   4.423   5.767  10.371 -0.3410 -0.0885  1.3178
14634SOL    HW245344   4.368   5.908  10.379 -0.8480 -0.2763  1.2299
14635SOL     OW45345   3.652   7.884   8.443  0.2229 -0.0604 -0.0468
14635SOL    HW145346   3.666   7.843   8.358  1.2137 -0.9563  0.5371
14635SOL    HW245347   3.739   7.897   8.479 -0.2117 -0.6571  1.2907
14636SOL     OW45348   0.233   4.347   7.304  0.1482  0.0268 -0.3592
14636SOL    HW145349   0.236   4.344   7.209  1.4214 -0.4961 -0.3223
14636SOL    HW245350   0.220   4.256   7.331  0.1607  0.1220 -0.0245
14637SOL     OW45351   3.412   4.151  11.461 -0.5769 -0.9027 -0.2892
14637SOL    HW145352   3.361   4.221  11.503 -1.0756 -1.4167 -0.0206
14637SOL    HW245353   3.361   4.072  11.478 -0.5805 -1.1781 -1.5318
14638SOL     OW45354   5.392   0.388   9.028 -0.5773  0.0882  0.2214
14638SOL    HW145355   5.407   0.319   9.092 -2.3474  0.2096  0.8180
14638SOL    HW245356   5.428   0.467   9.069  1.0188 -0.3396 -0.2641
14639SOL     OW45357   6.099   4.158   0.748  0.1136 -0.2428 -0.3839
14639SOL    HW145358   6.191   4.176   0.770  0.3101 -0.6432 -0.8442
14639SOL    HW245359   6.063   4.243   0.722 -0.2505  0.3341  1.8518
14640SOL     OW45360   2.226   3.289   5.659 -0.2000 -0.4874 -0.4400
14640SOL    HW145361   2.305   3.234   5.658  0.7598  0.7026  1.6431
14640SOL    HW245362   2.221   3.326   5.571 -0.5019 -3.3049 -1.6909
14641SOL     OW45363   1.333   4.680  10.541 -1.0733  0.2639 -0.2747
14641SOL    HW145364   1.248   4.677  10.496 -0.8997  3.8055 -1.1195
14641SOL    HW245365   1.326   4.754  10.600  1.1381  0.0527  0.3431
14642SOL     OW45366   5.269   3.164   1.435 -0.0281  0.0942  0.0666
14642SOL    HW145367   5.204   3.129   1.497  0.7576 -0.3230  0.6698
14642SOL    HW245368   5.340   3.100   1.436 -0.5756 -0.6574 -2.3347
14643SOL     OW45369   4.095   7.378   5.786  0.3169  0.6070  0.1374
14643SOL    HW145370   4.190   7.385   5.774  0.3230  1.8168  0.7198
14643SOL    HW245371   4.060   7.456   5.744 -0.1527  1.7290  2.4526
14644SOL     OW45372   2.008   1.536  11.594 -0.0078  0.1460  0.5710
14644SOL    HW145373   1.935   1.491  11.636 -0.8281 -0.0017 -0.9488
14644SOL    HW245374   2.059   1.466  11.554 -1.7650  0.4975 -2.5605
14645SOL     OW45375   1.614   6.294   7.832 -0.3946  0.1624 -0.4466
14645SOL    HW145376   1.568   6.316   7.912 -1.9670 -0.0462 -1.2495
14645SOL    HW245377   1.687   6.239   7.860 -0.2547  1.0211  0.9303
14646SOL     OW45378   6.729   7.122   7.078  0.9706  0.3064 -0.1084
14646SOL    HW145379   6.758   7.083   6.995  1.2894  0.0144  0.1375
14646SOL    HW245380   6.694   7.048   7.128  1.3704  0.3738  0.2709
14647SOL     OW45381   7.428   2.194   0.848 -0.0536  0.3594  0.4358
14647SOL    HW145382   7.479   2.272   0.827  1.2484 -0.9131 -1.4079
14647SOL    HW245383   7.443   2.181   0.942 -0.5673  2.4381  0.8725
14648SOL     OW45384   1.522   3.271   9.435  0.9769 -0.2376  0.2839
14648SOL    HW145385   1.492   3.223   9.512  0.0828  0.0282  0.1067
14648SOL    HW245386   1.616   3.254   9.432  0.7151 -1.8533  0.3149
14649SOL     OW45387   5.356   4.512   8.578 -0.0719 -0.6849  0.8950
14649SOL    HW145388   5.427   4.504   8.513 -1.4268  2.3338 -1.1956
14649SOL    HW245389   5.377   4.447   8.644  1.8510 -3.5348 -2.1784
14650SOL     OW45390   2.125   6.238   0.886  0.3442 -0.4273 -0.5079
14650SOL    HW145391   2.052   6.197   0.932  0.6105 -0.2869  0.0445
14650SOL    HW245392   2.099   6.329   0.876  0.8509 -0.1574  0.5476
14651SOL     OW45393   7.858   1.612  10.379  0.2071  0.0484  0.3138
14651SOL    HW145394   7.908   1.602  10.298  1.8312 -2.1582  1.5045
14651SOL    HW245395   7.767   1.621  10.350  0.7820 -0.3617 -1.7594
14652SOL     OW45396   1.755   5.614   9.705 -0.0255  0.1795  0.0324
14652SOL    HW145397   1.711   5.699   9.707  0.4082  0.4233 -0.4527
14652SOL    HW245398   1.848   5.636   9.702  0.0907 -0.3176 -0.0310
14653SOL     OW45399   4.014   6.823   0.892  0.8370  0.0162 -0.4309
14653SOL    HW145400   3.991   6.736   0.925  2.6106  0.1462  1.3425
14653SOL    HW245401   3.931   6.870   0.889  0.2586 -0.7055  1.9168
14654SOL     OW45402   5.234   0.245   6.904 -0.6463  0.2499 -0.2391
14654SOL    HW145403   5.183   0.177   6.860  0.5133 -0.9653  0.1796
14654SOL    HW245404   5.227   0.322   6.848 -0.4975 -0.7825 -1.7212
14655SOL     OW45405   3.226   2.961   7.212 -0.6356 -0.5563 -0.0176
14655SOL    HW145406   3.188   2.878   7.182 -0.3642 -0.4517 -0.6761
14655SOL    HW245407   3.166   2.992   7.280 -1.2324 -0.8387 -0.4052
14656SOL     OW45408   3.334   1.344   2.338  0.3944  0.3604  0.0106
14656SOL    HW145409   3.243   1.341   2.366  0.0534  0.8711 -0.9815
14656SOL    HW245410   3.338   1.286   2.262  0.4469  1.7277 -1.0844
14657SOL     OW45411   1.070   5.686   8.618  0.0409 -0.1070  0.2149
14657SOL    HW145412   1.151   5.725   8.584 -0.7669  1.7033  0.2439
14657SOL    HW245413   1.081   5.689   8.713  0.1123 -0.2502  0.2113
14658SOL     OW45414   6.310   1.890   9.469  0.2107 -0.0832  0.2099
14658SOL    HW145415   6.305   1.955   9.398 -0.1189 -0.6434 -0.2909
14658SOL    HW245416   6.229   1.903   9.519 -0.5559 -1.0214 -0.7216
14659SOL     OW45417   2.856   4.948   2.901  0.1942 -0.0050  0.3694
14659SOL    HW145418   2.865   4.855   2.921 -2.4189 -0.1708  1.2030
14659SOL    HW245419   2.906   4.993   2.969  0.6339 -0.7680  0.5582
14660SOL     OW45420   3.572   6.269   0.074 -0.0032  0.4783  0.7903
14660SOL    HW145421   3.597   6.356   0.107  2.4682 -0.2013  0.8914
14660SOL    HW245422   3.586   6.275  -0.020 -0.9553  0.5174  0.6444
14661SOL     OW45423   3.104   2.132   0.842  1.0752  0.8192  0.5464
14661SOL    HW145424   3.133   2.202   0.900 -0.5105  0.4378  1.8946
14661SOL    HW245425   3.081   2.060   0.901  0.7339 -0.1029 -0.6650
14662SOL     OW45426   2.815   7.089  10.536 -0.8265  0.2540 -0.7040
14662SOL    HW145427   2.752   7.019  10.516 -1.7927  0.5013  1.2072
14662SOL    HW245428   2.901   7.050  10.518 -1.3133 -1.5596  0.6161
14663SOL     OW45429   3.995   0.562   3.250  0.1599 -0.0283  0.7035
14663SOL    HW145430   4.041   0.643   3.271  1.1389 -0.3545 -0.1445
14663SOL    HW245431   3.962   0.575   3.161  0.5893 -0.6721  0.4422
14664SOL     OW45432   4.080   2.568   9.638 -0.2987  0.8491  0.3174
14664SOL    HW145433   4.040   2.553   9.552 -1.1243  0.1999  0.8049
14664SOL    HW245434   4.007   2.587   9.696  0.1651  0.3350  1.0863
14665SOL     OW45435   1.206   3.162   0.518  0.0907 -0.1486  0.7342
14665SOL    HW145436   1.298   3.154   0.490 -0.7420 -1.7147 -1.8737
14665SOL    HW245437   1.199   3.253   0.550  1.6984  1.3103 -2.5669
14666SOL     OW45438   7.852   6.952   7.342  0.5569 -0.1697  0.2166
14666SOL    HW145439   7.850   7.046   7.326 -0.3010 -0.1582  0.3521
14666SOL    HW245440   7.878   6.914   7.259  3.0699  0.2893  0.7036
14667SOL     OW45441   5.779   7.178   3.968 -0.1429 -0.3395 -0.0637
14667SOL    HW145442   5.753   7.108   3.909  0.1216 -0.3762 -0.1410
14667SOL    HW245443   5.858   7.215   3.928  1.0299 -1.4588  1.0917
14668SOL     OW45444   7.968   5.457  10.815 -0.3031 -0.6111 -0.0379
14668SOL    HW145445   7.906   5.526  10.791  1.5025  0.7714 -0.9798
14668SOL    HW245446   8.030   5.500  10.875 -0.7054 -2.1868  1.6067
14669SOL     OW45447   2.410   2.742   4.047  0.1991  0.0228 -0.1169
14669SOL    HW145448   2.317   2.727   4.029 -0.1165  1.5896  0.0765
14669SOL    HW245449   2.413   2.767   4.139  0.7791  0.1670 -0.1735
14670SOL     OW45450   4.555   5.403  11.345  0.0042  0.3244  0.1562
14670SOL    HW145451   4.528   5.389  11.254 -2.3954 -0.7398  0.9295
14670SOL    HW245452   4.605   5.325  11.367  1.0275  0.8148 -0.3634
14671SOL     OW45453   5.198   5.817   3.004 -0.2597  1.1374  0.5292
14671SOL    HW145454   5.262   5.756   2.966 -0.1021  1.8004 -0.2786
14671SOL    HW245455   5.205   5.896   2.951 -1.5942  1.3123  0.5842
14672SOL     OW45456   5.523   5.014   3.162 -0.7549  0.0078  0.3943
14672SOL    HW145457   5.485   5.000   3.249 -1.0076 -0.4968  0.2034
14672SOL    HW245458   5.449   5.044   3.109 -0.8617 -0.8199  0.0621
14673SOL     OW45459   2.150   0.722   3.007  0.2853  0.0049 -0.7102
14673SOL    HW145460   2.245   0.724   3.010  0.3417 -1.6375  0.2212
14673SOL    HW245461   2.123   0.808   3.040  1.4743 -0.4017  1.5357
14674SOL     OW45462   1.820   3.134   4.332 -0.0038  0.2240 -0.1362
14674SOL    HW145463   1.906   3.167   4.306  0.0067  1.0552  0.9050
14674SOL    HW245464   1.764   3.150   4.256  0.9954 -1.4512 -1.3133
14675SOL     OW45465   1.053   7.723   4.616  0.3385  0.2483 -0.1160
14675SOL    HW145466   1.075   7.763   4.532  2.2902 -0.5220 -0.0282
14675SOL    HW245467   1.096   7.638   4.613  0.6615  0.3198  1.7637
14676SOL     OW45468   1.182   0.945   1.956  0.6727  0.2103  0.5613
14676SOL    HW145469   1.259   0.975   2.005  1.1820  0.6021 -0.4575
14676SOL    HW245470   1.175   0.852   1.977 -0.1604  0.7166  2.7479
14677SOL     OW45471   4.697   0.520   9.255  0.6103  0.2034  0.0586
14677SOL    HW145472   4.658   0.601   9.288  0.1943  0.7505 -1.6484
14677SOL    HW245473   4.772   0.549   9.204  1.6744 -0.6640  1.0884
14678SOL     OW45474   2.354   1.944   5.869 -0.4467  0.2315 -0.7850
14678SOL    HW145475   2.298   2.012   5.832  0.1029  1.5265  0.6398
14678SOL    HW245476   2.305   1.912   5.945  0.5748  1.2231  0.3467
14679SOL     OW45477   1.549   3.243   3.571 -0.3135  0.5892 -0.8095
14679SOL    HW145478   1.533   3.333   3.601  0.5388  0.7628 -0.8336
14679SOL    HW245479   1.590   3.200   3.646 -1.0514  0.1108 -0.6752
14680SOL     OW45480   5.947   0.370   4.972 -0.7075  0.7497 -0.3862
14680SOL    HW145481   6.001   0.448   4.962 -0.7226  0.7367 -0.5724
14680SOL    HW245482   5.984   0.307   4.909 -0.2482  0.3578  0.2502
14681SOL     OW45483   0.011   4.800   0.635 -0.0711 -0.2672 -0.3584
14681SOL    HW145484   0.018   4.714   0.595  1.6884 -0.1629 -0.3494
14681SOL    HW245485  -0.014   4.858   0.563 -2.3446 -0.8886 -0.1589
14682SOL     OW45486   5.485   0.615   4.885  0.0632 -0.0187  0.0851
14682SOL    HW145487   5.404   0.637   4.840  0.3206  1.2318  0.1754
14682SOL    HW245488   5.539   0.571   4.818 -1.1056 -1.9695  0.3568
14683SOL     OW45489   7.842   7.160   2.201  0.2400  0.3994  0.1167
14683SOL    HW145490   7.772   7.154   2.135 -0.3372  0.5071  0.7035
14683SOL    HW245491   7.861   7.070   2.225  1.4637  0.2723 -1.2191
14684SOL     OW45492   0.255   5.711   9.863 -0.0161 -0.1927  0.0067
14684SOL    HW145493   0.280   5.627   9.823 -0.8287 -0.7251  0.5955
14684SOL    HW245494   0.331   5.767   9.849  0.2779 -0.8094 -1.0049
14685SOL     OW45495   7.108   2.666   6.529 -0.4270  0.2421 -0.0489
14685SOL    HW145496   7.152   2.717   6.596 -1.2832  0.2527  0.5159
14685SOL    HW245497   7.169   2.594   6.510 -0.8804 -0.7201  1.9563
14686SOL     OW45498   3.065   4.737   3.161  0.0175 -0.1572  0.1689
14686SOL    HW145499   3.061   4.754   3.255 -0.0160  3.8259 -0.3645
14686SOL    HW245500   3.045   4.644   3.153 -0.4762 -0.5741  4.0341
14687SOL     OW45501   0.730   4.595  10.627  0.5416 -0.2398 -0.2994
14687SOL    HW145502   0.680   4.561  10.701 -1.7994  0.2569 -1.5207
14687SOL    HW245503   0.814   4.620  10.664 -0.4916 -0.0906  2.1674
14688SOL     OW45504   1.063   2.887  12.031  0.5738  0.3961  0.6997
14688SOL    HW145505   1.060   2.878  11.936  0.4714 -0.3099  0.7700
14688SOL    HW245506   1.154   2.868  12.054  0.4739  0.0376  0.7974
14689SOL     OW45507   6.241   1.363   6.289 -0.0551 -0.4606  0.1522
14689SOL    HW145508   6.189   1.351   6.209 -0.4343  0.8167  0.1851
14689SOL    HW245509   6.322   1.316   6.272 -1.1629 -2.4257  0.0686
14690SOL     OW45510   1.222   7.163  11.197 -0.3128  0.1625 -0.2095
14690SOL    HW145511   1.276   7.084  11.201 -0.0302  0.3388 -0.4799
14690SOL    HW245512   1.176   7.165  11.280 -0.5346 -0.4415 -0.3121
14691SOL     OW45513   1.318   7.169   9.694 -0.0932 -0.4807  0.5942
14691SOL    HW145514   1.358   7.085   9.674  0.3603 -0.0231 -0.5209
14691SOL    HW245515   1.383   7.233   9.664 -1.5891  0.2917 -1.1237
14692SOL     OW45516   3.211   6.546  11.878 -0.0704 -0.3003  0.5991
14692SOL    HW145517   3.175   6.624  11.835 -1.4238 -0.8013  0.7753
14692SOL    HW245518   3.291   6.577  11.920 -0.9605  1.2033  1.2925
14693SOL     OW45519   6.114   3.187  12.251  0.7781 -0.1352  0.4919
14693SOL    HW145520   6.161   3.120  12.302 -2.0419 -3.3430 -0.7018
14693SOL    HW245521   6.088   3.141  12.171 -1.0893  2.5474 -0.5721
14694SOL     OW45522   7.960   3.493   0.492  0.5473  0.2784 -0.2042
14694SOL    HW145523   7.966   3.481   0.586 -0.2196 -0.6290 -0.2554
14694SOL    HW245524   8.051   3.499   0.462  0.8346 -0.8225  0.4187
14695SOL     OW45525   3.314   1.545   3.978 -1.1899  0.2589 -0.1513
14695SOL    HW145526   3.339   1.461   3.940  0.9547  0.6648  0.2249
14695SOL    HW245527   3.352   1.610   3.919  1.0339  0.8914  1.8036
14696SOL     OW45528   4.732   1.998   3.605  0.3693 -0.2797 -0.3008
14696SOL    HW145529   4.785   1.994   3.526  0.3054  0.5375 -0.3972
14696SOL    HW245530   4.679   1.918   3.603 -2.0418  1.2229 -2.8417
14697SOL     OW45531   0.339   3.606   0.975 -0.0756  0.0534 -1.0855
14697SOL    HW145532   0.248   3.619   1.002 -0.5096 -0.7998 -2.0313
14697SOL    HW245533   0.390   3.618   1.055 -0.9913  0.7982 -0.5876
14698SOL     OW45534   6.512   1.863   2.079  0.1133  0.0223  0.3142
14698SOL    HW145535   6.468   1.821   2.005  0.9402 -0.4365  0.0785
14698SOL    HW245536   6.489   1.808   2.154  0.9330 -0.6777  0.0587
14699SOL     OW45537   5.535   1.520   4.100 -0.4744  0.5175  0.0487
14699SOL    HW145538   5.473   1.453   4.071  0.4088 -0.5297  0.5378
14699SOL    HW245539   5.568   1.489   4.184  2.8567 -0.4532 -1.4682
14700SOL     OW45540   7.703   3.253   3.846  0.1504  0.5786  0.2396
14700SOL    HW145541   7.641   3.306   3.895 -1.5815  1.3950 -2.5946
14700SOL    HW245542   7.669   3.164   3.852 -1.0856  0.9410 -0.8499
14701SOL     OW45543   2.846   1.123   3.497 -0.1022  0.5401 -0.0972
14701SOL    HW145544   2.835   1.043   3.445 -0.4278  0.1158  0.6005
14701SOL    HW245545   2.840   1.194   3.433  0.2133  0.0073 -0.7320
14702SOL     OW45546   7.703   4.700   9.825 -0.3879 -0.2957 -0.2358
14702SOL    HW145547   7.716   4.727   9.734  0.4320  0.3864  0.0809
14702SOL    HW245548   7.782   4.650   9.847  0.1603  0.9098  0.6010
14703SOL     OW45549   3.264   5.662   4.213  0.4307 -0.5276  0.0891
14703SOL    HW145550   3.353   5.670   4.249  0.1132  1.2382  0.5449
14703SOL    HW245551   3.206   5.672   4.288 -0.2071 -2.4458 -0.0672
14704SOL     OW45552   5.792   0.400  11.837 -0.1064  0.2024 -0.6894
14704SOL    HW145553   5.849   0.476  11.824  0.1998  0.1094  0.0629
14704SOL    HW245554   5.742   0.393  11.755  0.8936  0.3424 -1.3249
14705SOL     OW45555   5.636   4.168  10.232  0.0282  0.2063  0.4394
14705SOL    HW145556   5.729   4.174  10.210 -0.2604 -0.4126 -1.0750
14705SOL    HW245557   5.594   4.235  10.179 -0.1992  1.9341  2.6763
14706SOL     OW45558   0.491   4.822  10.737 -0.4824  1.0081 -0.3505
14706SOL    HW145559   0.458   4.909  10.716  0.4180  0.8873 -2.5359
14706SOL    HW245560   0.586   4.832  10.736 -0.3741  0.2687  0.7829
14707SOL     OW45561   2.929   0.096  12.417 -0.8206 -0.2308  0.0347
14707SOL    HW145562   2.844   0.106  12.460 -0.5226  1.7330  0.2568
14707SOL    HW245563   2.907   0.088  12.324 -1.2620 -0.0428  0.1194
14708SOL     OW45564   1.205   7.014  11.818  0.0662  0.1748  0.0202
14708SOL    HW145565   1.142   7.024  11.889  1.4555 -1.0532  1.4814
14708SOL    HW245566   1.188   7.089  11.761 -1.3116  1.0162  1.4485
14709SOL     OW45567   1.426   6.724   3.906  0.5181 -0.0551 -0.2677
14709SOL    HW145568   1.481   6.772   3.967  0.4655  0.6839 -0.7889
14709SOL    HW245569   1.448   6.632   3.920  1.7143  0.2148 -0.3147
14710SOL     OW45570   4.962   2.771  11.888 -0.2172 -0.0294  0.2006
14710SOL    HW145571   4.942   2.823  11.810  0.7433  1.4847  0.9163
14710SOL    HW245572   4.974   2.836  11.957 -0.7234 -1.3304  1.5463
14711SOL     OW45573   7.846   5.128   0.698  0.5683  0.3672  0.1068
14711SOL    HW145574   7.893   5.091   0.773  0.2839 -0.3959 -0.0843
14711SOL    HW245575   7.779   5.064   0.678  0.8866  0.3743 -1.0478
14712SOL     OW45576   2.356   6.838   8.412 -0.2848  0.2122  0.5850
14712SOL    HW145577   2.312   6.755   8.393 -2.5426  1.6900 -1.1526
14712SOL    HW245578   2.432   6.838   8.354 -0.7562 -0.2851 -0.0448
14713SOL     OW45579   2.465   1.450   4.444  0.0721  0.0278 -0.0189
14713SOL    HW145580   2.526   1.394   4.397 -0.8626 -1.3132  0.3048
14713SOL    HW245581   2.388   1.395   4.458 -0.9190  1.4245  0.2508
14714SOL     OW45582   4.273   3.878   8.217  0.0710  0.5486 -0.1871
14714SOL    HW145583   4.222   3.901   8.294  0.5441 -2.2039  1.0776
14714SOL    HW245584   4.223   3.914   8.144 -0.1629  3.6532  1.3202
14715SOL     OW45585   7.420   2.176   9.862 -0.0768  0.0439  0.3392
14715SOL    HW145586   7.412   2.182   9.767 -1.6789  0.5048  0.4804
14715SOL    HW245587   7.393   2.086   9.883  0.3787 -0.0916  0.3628
14716SOL     OW45588   1.547   2.224   5.758  0.0752 -0.0683 -0.3175
14716SOL    HW145589   1.643   2.217   5.749  0.2575  0.3378  1.0470
14716SOL    HW245590   1.534   2.303   5.810 -0.8729 -1.2323  1.2944
14717SOL     OW45591   3.513   5.219   0.600 -0.3721 -0.4969 -0.0751
14717SOL    HW145592   3.447   5.287   0.584  1.1443  1.2924  0.7788
14717SOL    HW245593   3.468   5.154   0.653 -1.9379 -0.2654 -1.0606
14718SOL     OW45594   6.817   5.634   9.558  0.6389  0.4014 -0.8332
14718SOL    HW145595   6.893   5.634   9.616 -0.2819 -1.2654  0.4536
14718SOL    HW245596   6.796   5.542   9.545  0.2767  0.7499 -3.1598
14719SOL     OW45597   7.935   2.126   8.160  0.3707 -0.1745  0.4700
14719SOL    HW145598   8.004   2.061   8.171  0.0232 -0.2775  2.2484
14719SOL    HW245599   7.917   2.157   8.248 -2.0301 -0.3265  0.0899
14720SOL     OW45600   1.686   3.549   4.198  0.5324  0.3523  0.3146
14720SOL    HW145601   1.617   3.603   4.161  1.1225  0.9214  0.0280
14720SOL    HW245602   1.714   3.595   4.277 -0.9244 -1.0039  1.7102
14721SOL     OW45603   4.036   5.542   9.021 -0.2548  0.0200  0.1779
14721SOL    HW145604   3.972   5.495   8.967 -0.2576  0.0182  0.1823
14721SOL    HW245605   4.076   5.473   9.075 -0.9724  0.1558  0.9062
14722SOL     OW45606   7.762   6.209   9.181  0.0005 -0.4479  0.3996
14722SOL    HW145607   7.807   6.293   9.165  0.2487 -0.5530  0.5388
14722SOL    HW245608   7.713   6.193   9.100  0.3481 -0.4132  0.1755
14723SOL     OW45609   0.198   7.802  11.071 -0.3376  0.0001  0.0371
14723SOL    HW145610   0.275   7.828  11.021 -0.4421 -1.9856 -1.2610
14723SOL    HW245611   0.126   7.805  11.008 -0.3672 -3.1309 -0.2004
14724SOL     OW45612   6.934   3.119   6.962  0.1633 -0.2617 -0.3236
14724SOL    HW145613   6.917   3.180   7.034  0.5338  1.3306 -1.5143
14724SOL    HW245614   6.992   3.053   6.999  0.9524  0.9395  0.6794
14725SOL     OW45615   0.551   1.533   6.164 -0.6956  0.4424 -0.1780
14725SOL    HW145616   0.567   1.486   6.083 -0.9422  0.6361 -0.3416
14725SOL    HW245617   0.603   1.487   6.230  0.2509  0.8494 -0.6247
14726SOL     OW45618   2.261   6.023  12.226  0.1773 -0.1980  0.1352
14726SOL    HW145619   2.199   6.023  12.299  0.6542  1.4203  0.5572
14726SOL    HW245620   2.282   5.930  12.214 -2.3464 -0.8416 -0.0618
14727SOL     OW45621   4.517   7.561   4.996 -0.1818 -0.3983 -0.0751
14727SOL    HW145622   4.538   7.479   4.950  1.5124  0.2844 -0.5937
14727SOL    HW245623   4.458   7.607   4.937 -1.3723 -1.3363  0.3386
14728SOL     OW45624   2.398   6.670   1.012  0.0605  0.1847 -0.1067
14728SOL    HW145625   2.378   6.626   0.929  0.9223  0.6821 -0.5873
14728SOL    HW245626   2.344   6.624   1.076  0.0306 -0.7772 -0.7924
14729SOL     OW45627   7.924   7.776   8.848 -0.1686  0.2002  0.3855
14729SOL    HW145628   8.001   7.831   8.830 -1.2610  1.4510 -0.6050
14729SOL    HW245629   7.868   7.831   8.903 -1.3375  0.1548 -0.7238
14730SOL     OW45630   1.646   0.330  10.341 -0.3507 -0.3824 -0.2222
14730SOL    HW145631   1.570   0.389  10.347 -0.4932 -0.6939  1.5436
14730SOL    HW245632   1.659   0.299  10.431  0.6522 -1.8894 -0.8628
14731SOL     OW45633   2.086   5.798   3.810  0.0811  0.1068  0.7541
14731SOL    HW145634   2.143   5.805   3.733 -0.0729  0.9100  0.7098
14731SOL    HW245635   2.066   5.704   3.815 -1.6819  0.2561 -1.4920
14732SOL     OW45636   1.393   7.520  11.601 -0.2497  0.0582 -0.1613
14732SOL    HW145637   1.360   7.448  11.547 -0.0770  0.1581 -0.4011
14732SOL    HW245638   1.469   7.553  11.552 -0.2556  0.3216  0.0114
14733SOL     OW45639   7.362   1.786   0.963 -0.6942  0.2331 -0.2223
14733SOL    HW145640   7.439   1.772   1.020 -0.9798  0.4178  0.2146
14733SOL    HW245641   7.349   1.701   0.920 -0.5071  0.0740  0.0293
14734SOL     OW45642   2.342   3.321   7.216  0.3864 -0.5199  0.4234
14734SOL    HW145643   2.401   3.395   7.202 -1.1680  0.3811 -1.7492
14734SOL    HW245644   2.314   3.295   7.129 -2.2723 -1.0565  1.3500
14735SOL     OW45645   1.676   2.532   3.557 -0.0790 -0.0076  0.0753
14735SOL    HW145646   1.612   2.465   3.532  0.7743 -0.7826 -0.0847
14735SOL    HW245647   1.657   2.606   3.500 -1.6388  0.2588  0.8911
14736SOL     OW45648   7.656   1.110   3.586 -0.0995 -0.2742  0.0833
14736SOL    HW145649   7.659   1.015   3.581  0.3602 -0.1916 -2.5056
14736SOL    HW245650   7.745   1.136   3.609  0.0681 -0.4426 -0.3657
14737SOL     OW45651   7.960   2.444   8.351  0.2070  0.4314  0.4224
14737SOL    HW145652   7.864   2.444   8.357  0.1801 -1.4722  0.4661
14737SOL    HW245653   7.988   2.484   8.433 -0.5607 -1.2321  1.5598
14738SOL     OW45654   1.668   1.721   6.965  0.3125 -0.0629  0.2568
14738SOL    HW145655   1.652   1.678   7.049 -3.5633 -1.9077 -1.1883
14738SOL    HW245656   1.707   1.653   6.910  0.0106  0.1745 -0.2592
14739SOL     OW45657   0.766   6.955   4.767 -0.2325  0.3717  0.3643
14739SOL    HW145658   0.855   6.922   4.752  1.4888  4.7807 -0.5485
14739SOL    HW245659   0.735   6.979   4.679 -1.8888  0.0481  0.8318
14740SOL     OW45660   7.430   2.568   0.530 -0.6440  0.4246 -0.0068
14740SOL    HW145661   7.492   2.571   0.458  0.6613 -0.3645  1.0502
14740SOL    HW245662   7.398   2.478   0.531 -2.1931  0.9332 -0.8261
14741SOL     OW45663   6.042   4.186   8.533 -0.1598  0.2131 -0.3095
14741SOL    HW145664   6.108   4.194   8.464 -0.1451  0.0987 -0.3087
14741SOL    HW245665   6.073   4.245   8.602  0.6074 -0.7681  0.2156
14742SOL     OW45666   4.822   4.162  11.352 -0.5803 -0.3337  0.5324
14742SOL    HW145667   4.799   4.253  11.374  2.3359  0.5467  0.3154
14742SOL    HW245668   4.865   4.128  11.430 -2.7297 -2.0437  1.0733
14743SOL     OW45669   5.183   6.772   5.274  0.4303  0.9940  0.6220
14743SOL    HW145670   5.147   6.736   5.356  0.8640  1.7982  1.1822
14743SOL    HW245671   5.191   6.696   5.216 -0.5617  0.5211  1.0696
14744SOL     OW45672   4.496   7.964   9.476  0.1418  0.5305 -0.6758
14744SOL    HW145673   4.453   8.007   9.402 -1.3379 -1.1289 -0.8253
14744SOL    HW245674   4.589   7.961   9.450 -0.2291  0.6569 -2.1239
14745SOL     OW45675   7.233   6.548   5.999  0.5867 -0.2790 -0.1649
14745SOL    HW145676   7.312   6.516   5.955  1.6059  2.7915 -0.8140
14745SOL    HW245677   7.174   6.572   5.927 -0.7263 -1.8592  0.3119
14746SOL     OW45678   6.142   3.690   9.691 -0.1651 -0.6575 -0.3055
14746SOL    HW145679   6.057   3.647   9.697 -0.4401  0.0507  1.9531
14746SOL    HW245680   6.165   3.710   9.782  0.4755  2.8201 -1.0756
14747SOL     OW45681   5.830   7.280   0.526 -0.2502 -0.0139  0.3091
14747SOL    HW145682   5.863   7.253   0.612  0.4422 -0.6933 -0.1528
14747SOL    HW245683   5.834   7.376   0.527  2.1166 -0.0619  0.1538
14748SOL     OW45684   7.682   4.712   4.892  0.9733 -0.3666 -0.0202
14748SOL    HW145685   7.587   4.722   4.901  1.0083  1.9103 -1.4354
14748SOL    HW245686   7.713   4.701   4.982 -0.4834  0.5044  0.6313
14749SOL     OW45687   0.159   1.195   9.537 -0.3566 -0.0332 -0.4755
14749SOL    HW145688   0.074   1.163   9.505 -0.9576 -0.3791  1.3968
14749SOL    HW245689   0.220   1.124   9.520 -0.2908  0.3675 -2.2135
14750SOL     OW45690   2.871   1.601  10.620 -0.2489  0.5371 -0.2853
14750SOL    HW145691   2.888   1.640  10.705  1.7275 -1.5604  0.3872
14750SOL    HW245692   2.927   1.649  10.559 -1.0919  1.5316 -0.3002
14751SOL     OW45693   6.278   2.210   5.619  0.1284  0.6804 -0.0746
14751SOL    HW145694   6.315   2.134   5.664  0.6209 -0.0275 -1.6008
14751SOL    HW245695   6.211   2.173   5.560 -0.0740  1.4954 -0.3709
14752SOL     OW45696   5.191   1.596   2.166 -0.3258  0.1284 -0.6843
14752SOL    HW145697   5.128   1.542   2.214 -0.3493  2.2096  1.8687
14752SOL    HW245698   5.274   1.549   2.173 -0.5132 -0.0325  0.7658
14753SOL     OW45699   4.505   2.298  10.228 -0.2669 -0.4187  0.5930
14753SOL    HW145700   4.597   2.279  10.210 -1.0170 -1.7493 -2.4499
14753SOL    HW245701   4.485   2.374  10.173 -1.1640 -0.6393  0.5970
14754SOL     OW45702   5.899   0.676   7.723  0.3264  0.1280  0.1796
14754SOL    HW145703   5.840   0.739   7.681 -0.2501 -0.5091  0.0225
14754SOL    HW245704   5.929   0.620   7.651 -0.2822 -0.6615  0.5276
14755SOL     OW45705   2.545   4.346   8.256  0.4542 -0.0497 -0.0018
14755SOL    HW145706   2.545   4.414   8.189  0.5450 -1.1273 -1.1417
14755SOL    HW245707   2.621   4.291   8.234 -0.8395 -1.7473 -0.4566
14756SOL     OW45708   7.719   3.775   9.942  0.6513 -0.6862 -0.1355
14756SOL    HW145709   7.649   3.763   9.878  0.0640  0.3361  0.2834
14756SOL    HW245710   7.723   3.870   9.955  1.5105 -0.7979  0.5252
14757SOL     OW45711   7.004   1.857   2.331 -0.2433 -0.0260 -0.9240
14757SOL    HW145712   6.927   1.886   2.283 -0.1243  1.9840  0.0088
14757SOL    HW245713   7.077   1.865   2.269 -0.4092  0.4930 -1.0510
14758SOL     OW45714   4.384   5.080  11.368 -0.0462  0.3895 -0.9966
14758SOL    HW145715   4.478   5.097  11.365 -0.0868  0.5048 -2.0775
14758SOL    HW245716   4.344   5.167  11.377 -0.0356  0.2612  0.6469
14759SOL     OW45717   1.891   3.139  10.140  0.1296 -0.2671  0.4933
14759SOL    HW145718   1.933   3.223  10.123 -0.7942  0.0337 -0.3738
14759SOL    HW245719   1.797   3.158  10.139 -0.0978 -1.3316  0.1416
14760SOL     OW45720   7.444   5.936   8.192  0.2435  0.1507  0.6258
14760SOL    HW145721   7.370   5.991   8.219  1.1758  1.0239  1.5076
14760SOL    HW245722   7.411   5.847   8.194 -1.0552  0.5976  0.0566
14761SOL     OW45723   3.981   2.112   2.102  0.2239 -0.1678 -0.2263
14761SOL    HW145724   3.919   2.156   2.044 -0.8485  0.3742  1.2846
14761SOL    HW245725   3.939   2.029   2.124  0.2897 -0.0543  0.3439
14762SOL     OW45726   6.482   6.378   5.091 -0.5319  0.0818  0.2549
14762SOL    HW145727   6.478   6.470   5.064 -0.1771  0.4749  1.5070
14762SOL    HW245728   6.412   6.369   5.156  1.0414  0.1432  2.0399
14763SOL     OW45729   3.785   4.249   3.770 -0.0209 -0.3400 -0.2170
14763SOL    HW145730   3.837   4.225   3.847  0.0621 -1.6932 -0.6720
14763SOL    HW245731   3.717   4.306   3.805  1.5306  1.1948  0.4452
14764SOL     OW45732   1.765   0.188   1.455 -0.1207  0.0373 -0.4338
14764SOL    HW145733   1.725   0.101   1.449  0.5522 -0.4413  1.3124
14764SOL    HW245734   1.858   0.173   1.438 -0.4330  0.9890 -3.5060
14765SOL     OW45735   4.453   3.774   5.112 -0.0323  0.1967  0.0557
14765SOL    HW145736   4.493   3.858   5.090  0.8128 -0.2465 -0.1355
14765SOL    HW245737   4.445   3.777   5.208  2.1429 -0.4179  0.3000
14766SOL     OW45738   0.732   7.117   9.833  0.6785  0.4218 -0.0882
14766SOL    HW145739   0.742   7.207   9.865 -1.6180  0.9070 -0.5954
14766SOL    HW245740   0.734   7.063   9.913 -1.9032  1.3335  0.6816
14767SOL     OW45741   3.788   4.214  10.574 -0.0083  0.4711  0.0516
14767SOL    HW145742   3.780   4.235  10.481 -0.0533 -0.3831 -0.1411
14767SOL    HW245743   3.704   4.174  10.597 -0.0240  0.7406  0.4807
14768SOL     OW45744   5.125   6.059   9.487  0.2965 -0.0965  0.2526
14768SOL    HW145745   5.159   5.973   9.463 -0.9188 -0.6600  0.4798
14768SOL    HW245746   5.069   6.085   9.414 -1.0807 -0.5043  1.1235
14769SOL     OW45747   1.963   1.364   6.472 -0.3991  0.2495 -0.0731
14769SOL    HW145748   1.881   1.317   6.484  0.1158 -0.7238 -0.2310
14769SOL    HW245749   1.950   1.449   6.515 -1.5072  0.1467 -0.1885
14770SOL     OW45750   4.404   5.162   1.101  0.4632 -0.1721  0.2136
14770SOL    HW145751   4.331   5.197   1.050  0.8576  1.2682  0.5732
14770SOL    HW245752   4.372   5.160   1.191  0.1798 -1.5473  0.1048
14771SOL     OW45753   5.291   2.476   6.567 -0.0672 -0.0062 -0.3279
14771SOL    HW145754   5.242   2.417   6.510 -0.9330 -0.5409  0.9288
14771SOL    HW245755   5.224   2.531   6.608  0.4286 -0.3083  0.9224
14772SOL     OW45756   6.255   6.521   7.955 -0.5731  0.1514 -0.7000
14772SOL    HW145757   6.178   6.483   7.996 -0.7373  1.1131 -0.1010
14772SOL    HW245758   6.286   6.587   8.017  0.2954  0.2980 -1.2678
14773SOL     OW45759   6.398   5.147   0.855 -0.8828  0.9247  0.0553
14773SOL    HW145760   6.451   5.068   0.865 -1.8997  0.3276  1.1364
14773SOL    HW245761   6.346   5.131   0.777  0.2119  1.3322 -0.7684
14774SOL     OW45762   4.519   5.873   0.252 -0.2141  0.1387 -0.2558
14774SOL    HW145763   4.554   5.851   0.338  2.0089  2.1610 -0.5155
14774SOL    HW245764   4.457   5.945   0.269  0.3785  0.6774 -0.3319
14775SOL     OW45765   3.157   7.642  11.406 -0.0635  0.4738 -0.3089
14775SOL    HW145766   3.069   7.633  11.441  0.1330  0.1863  0.1298
14775SOL    HW245767   3.152   7.715  11.345 -0.9202 -0.3946 -1.3127
14776SOL     OW45768   1.857   0.157  11.171 -0.4292  0.3374 -0.1252
14776SOL    HW145769   1.882   0.168  11.263 -1.7417  2.0957  0.0733
14776SOL    HW245770   1.939   0.134  11.126  0.3649  0.1357  1.3616
14777SOL     OW45771   0.075   4.963   5.119 -0.4323  0.0355 -0.0565
14777SOL    HW145772   0.123   4.942   5.040  0.2848 -0.1858  0.4258
14777SOL    HW245773   0.141   4.960   5.189 -0.3145  3.3811  0.1370
14778SOL     OW45774   3.185   7.687   0.878 -0.2062 -0.1228  0.4466
14778SOL    HW145775   3.274   7.653   0.887 -0.2972 -0.5626 -0.2847
14778SOL    HW245776   3.158   7.662   0.790 -0.9091  0.3577  0.5184
14779SOL     OW45777   3.311   1.400   5.248 -0.1528  0.2314 -0.2771
14779SOL    HW145778   3.276   1.322   5.204 -0.2246  0.6073 -0.9124
14779SOL    HW245779   3.234   1.455   5.263 -0.0198  0.4596 -0.4247
14780SOL     OW45780   4.305   6.219   6.711 -0.0811  0.1592  0.2101
14780SOL    HW145781   4.248   6.281   6.665  0.1713 -0.2175 -0.6370
14780SOL    HW245782   4.377   6.274   6.744 -0.6435  0.5486  0.8194
14781SOL     OW45783   6.928   4.296  10.920 -0.3062 -0.7537  0.1168
14781SOL    HW145784   6.947   4.254  10.836  0.5437  1.8409 -1.1037
14781SOL    HW245785   6.917   4.388  10.899 -0.9758 -0.1361  2.7721
14782SOL     OW45786   3.161   1.815   9.689 -0.1451  0.1157  0.8314
14782SOL    HW145787   3.172   1.909   9.678 -1.3395  0.2615  0.6976
14782SOL    HW245788   3.083   1.794   9.638  1.0459 -1.2482 -0.5112
14783SOL     OW45789   0.275   4.342   3.076  0.1449 -0.1644  0.3178
14783SOL    HW145790   0.190   4.380   3.100  1.0462  1.1079  1.6355
14783SOL    HW245791   0.257   4.294   2.995 -2.3342 -1.8838  1.7208
14784SOL     OW45792   1.132   1.636   1.810 -0.1315 -0.4996 -0.2172
14784SOL    HW145793   1.174   1.562   1.765  1.8205 -0.1232  0.8436
14784SOL    HW245794   1.163   1.630   1.900 -1.1273  0.7768  0.2426
14785SOL     OW45795   5.145   6.786  11.157  0.2592 -0.4321 -0.0940
14785SOL    HW145796   5.192   6.770  11.239 -1.1264 -1.8340  0.4954
14785SOL    HW245797   5.057   6.750  11.173 -0.0736 -0.6621 -2.1602
14786SOL     OW45798   1.316   6.508  12.085  0.1173 -0.0444 -0.1603
14786SOL    HW145799   1.252   6.440  12.064  0.5206 -0.5916  0.3573
14786SOL    HW245800   1.394   6.460  12.111 -0.1719  0.5958  2.0632
14787SOL     OW45801   0.062   0.533  11.122 -0.2174 -0.3161 -0.2260
14787SOL    HW145802   0.083   0.550  11.214  0.5428 -0.0095 -0.4534
14787SOL    HW245803   0.130   0.578  11.072  1.1396 -2.9060 -0.8884
14788SOL     OW45804   5.821   2.966   6.072 -0.5180  0.1774 -0.0472
14788SOL    HW145805   5.790   3.049   6.037 -1.9074 -0.5838 -0.7179
14788SOL    HW245806   5.830   2.909   5.995  2.9121  0.3767  0.0357
14789SOL     OW45807   3.128   1.770   1.433 -0.0882 -0.3535 -0.0750
14789SOL    HW145808   3.217   1.802   1.415 -1.6130  4.1122 -0.9889
14789SOL    HW245809   3.130   1.746   1.526  1.6844  1.4498  0.4233
14790SOL     OW45810   0.134   3.956   2.671  0.2693 -0.0561  0.0122
14790SOL    HW145811   0.089   4.027   2.625  1.4441  0.0797 -0.9904
14790SOL    HW245812   0.064   3.897   2.698 -0.4907 -0.2477 -2.1873
14791SOL     OW45813   2.862   2.773   8.051  0.0704 -0.0031  0.4358
14791SOL    HW145814   2.880   2.690   8.006  0.2589 -0.1413  0.7605
14791SOL    HW245815   2.915   2.838   8.005  0.3864 -0.1725  0.5584
14792SOL     OW45816   6.172   1.270   3.943  0.1233  0.1262  0.7323
14792SOL    HW145817   6.078   1.284   3.945 -0.0086 -0.6390  0.1504
14792SOL    HW245818   6.189   1.232   3.856  0.9059 -0.1441  0.9951
14793SOL     OW45819   3.375   5.734   1.296 -0.4272 -0.0877 -0.6273
14793SOL    HW145820   3.337   5.647   1.292 -0.7844  0.0399 -0.1229
14793SOL    HW245821   3.468   5.721   1.279  0.2476 -1.0864  2.9824
14794SOL     OW45822   5.870   3.855   1.257 -0.7209 -0.3223  0.5652
14794SOL    HW145823   5.884   3.893   1.170 -1.9108 -1.7161 -0.2923
14794SOL    HW245824   5.870   3.930   1.316  0.8442  0.5971 -0.5129
14795SOL     OW45825   6.069   7.191   9.238  0.2370 -0.3376 -0.3749
14795SOL    HW145826   5.993   7.248   9.249 -1.2302 -2.1569 -0.5739
14795SOL    HW245827   6.133   7.223   9.303 -1.2032  0.4272  0.7247
14796SOL     OW45828   2.312   5.403  10.251 -0.2014 -0.3117 -0.4082
14796SOL    HW145829   2.377   5.417  10.320 -0.8169 -0.5923  0.2436
14796SOL    HW245830   2.330   5.315  10.218 -0.2658 -0.3968 -0.2151
14797SOL     OW45831   3.265   0.076   8.162 -0.4696  0.2953  0.4257
14797SOL    HW145832   3.315   0.058   8.242 -1.4257  1.5244  1.3400
14797SOL    HW245833   3.309   0.152   8.123  1.4759 -1.6971 -1.5954
14798SOL     OW45834   0.706   6.343   7.722  0.4843  0.4002  0.1781
14798SOL    HW145835   0.636   6.386   7.673  0.9034  0.6712 -0.1815
14798SOL    HW245836   0.785   6.391   7.698  0.8738 -0.2343  0.1854
14799SOL     OW45837   4.506   5.229   0.149  0.5058  0.0499  0.2153
14799SOL    HW145838   4.423   5.182   0.156  1.5119 -1.8059  0.1228
14799SOL    HW245839   4.516   5.245   0.055  0.7154 -0.5852  0.1291
14800SOL     OW45840   6.133   3.513   3.551 -0.4021 -0.4100 -0.2432
14800SOL    HW145841   6.094   3.595   3.523 -0.0490 -1.1192 -3.1602
14800SOL    HW245842   6.206   3.539   3.608 -0.1819  1.3215 -1.2536
14801SOL     OW45843   5.950   5.537   5.032  0.5979 -0.1382 -0.6143
14801SOL    HW145844   5.931   5.604   4.965  0.7785 -0.1652 -0.6921
14801SOL    HW245845   5.938   5.583   5.115  0.7952  0.0118 -0.6678
14802SOL     OW45846   6.531   2.700   9.865  0.0418  0.4980 -0.4033
14802SOL    HW145847   6.506   2.793   9.868  0.1527  0.5877 -1.6187
14802SOL    HW245848   6.490   2.667   9.786 -0.9735 -0.8168  0.6269
14803SOL     OW45849   0.106   5.538   6.305  0.1516  0.1417 -0.0362
14803SOL    HW145850   0.051   5.547   6.383 -0.8578 -1.2095 -0.5651
14803SOL    HW245851   0.195   5.531   6.340 -0.4392 -2.3040  1.1652
14804SOL     OW45852   3.244   5.108   8.313  0.3544  0.1200 -0.0517
14804SOL    HW145853   3.154   5.076   8.308 -0.3882  1.6991  1.8745
14804SOL    HW245854   3.245   5.185   8.256  1.1760 -1.2465 -1.9410
14805SOL     OW45855   6.853   2.608   9.253 -0.3569 -0.4293 -0.5421
14805SOL    HW145856   6.791   2.645   9.315  0.0812 -0.3207 -0.1569
14805SOL    HW245857   6.938   2.646   9.279 -0.0819 -0.8258 -0.8475
14806SOL     OW45858   5.436   7.093   4.749  0.2080  0.6059 -0.1581
14806SOL    HW145859   5.524   7.118   4.778  0.2129 -0.5382  0.9167
14806SOL    HW245860   5.394   7.058   4.828 -0.4874 -0.7804 -1.0978
14807SOL     OW45861   0.363   1.653   7.568  0.0631 -0.2872  0.6035
14807SOL    HW145862   0.372   1.744   7.598  1.0494 -0.9893  2.6589
14807SOL    HW245863   0.274   1.629   7.591 -0.8957  0.6945 -1.7568
14808SOL     OW45864   7.705   7.796   3.199 -0.8380  0.1324  0.3950
14808SOL    HW145865   7.670   7.710   3.219 -1.6730  0.2187 -0.6327
14808SOL    HW245866   7.716   7.796   3.104  2.5523 -0.1073  0.6474
14809SOL     OW45867   3.225   3.353   4.573  0.2170  0.2555 -0.2179
14809SOL    HW145868   3.265   3.390   4.494 -1.6534  0.9566 -0.9046
14809SOL    HW245869   3.225   3.425   4.636 -2.4972  1.2429 -1.2113
14810SOL     OW45870   2.938   1.712   2.319 -0.4312 -0.3099  0.1838
14810SOL    HW145871   2.986   1.713   2.235 -0.7381  1.2629 -0.0151
14810SOL    HW245872   2.903   1.624   2.326  1.2395 -1.0630 -0.3930
14811SOL     OW45873   6.564   6.648   6.960 -0.5011 -0.0177 -0.4405
14811SOL    HW145874   6.594   6.573   7.013 -0.9635 -0.3948 -0.7061
14811SOL    HW245875   6.634   6.713   6.969  0.0784 -0.6193 -0.4946
14812SOL     OW45876   2.964   7.967   5.322 -0.2411 -0.2624 -0.9215
14812SOL    HW145877   2.901   7.999   5.259 -0.5577 -1.1444 -1.0651
14812SOL    HW245878   2.945   7.874   5.331 -0.2167 -0.1558  0.4885
14813SOL     OW45879   7.050   0.577   9.226 -0.2845 -0.1132 -0.1304
14813SOL    HW145880   7.021   0.486   9.233  0.9677 -0.8006 -2.7931
14813SOL    HW245881   7.019   0.606   9.140  2.3671  0.7752 -0.8695
14814SOL     OW45882   4.414   2.674   6.472 -0.3279 -0.0688 -0.3051
14814SOL    HW145883   4.431   2.730   6.548 -0.6315 -1.0413  0.5060
14814SOL    HW245884   4.344   2.719   6.424  0.4750  1.0097 -0.5201
14815SOL     OW45885   1.012   7.076   7.085  0.1249  1.0870 -0.0552
14815SOL    HW145886   0.972   7.135   7.021  0.1078  1.1031 -0.0295
14815SOL    HW245887   1.103   7.105   7.091  0.2568  0.7695 -0.4501
14816SOL     OW45888   3.773   2.437   7.630 -0.0065  0.1188  0.6348
14816SOL    HW145889   3.858   2.459   7.592 -0.9025 -0.2684 -1.7275
14816SOL    HW245890   3.758   2.346   7.606 -0.8926  0.0343  1.4472
14817SOL     OW45891   3.265   0.882  10.015  0.8566  0.1630  0.5521
14817SOL    HW145892   3.194   0.819  10.005  0.9382  0.3680 -1.9781
14817SOL    HW245893   3.224   0.959  10.054 -0.3015  0.1833 -0.6293
14818SOL     OW45894   5.885   2.920  10.355  0.6151 -0.0712 -0.2404
14818SOL    HW145895   5.946   2.987  10.324  0.1146  1.1603  1.2867
14818SOL    HW245896   5.910   2.904  10.446  0.2732 -1.4719 -0.3551
14819SOL     OW45897   0.668   6.092  11.415 -0.8138 -0.1138  0.1851
14819SOL    HW145898   0.656   6.104  11.321 -1.1158  2.4724  0.4896
14819SOL    HW245899   0.763   6.103  11.429 -0.9141  0.6855  0.2947
14820SOL     OW45900   2.383   4.182   4.217 -0.2272  0.2971  0.5126
14820SOL    HW145901   2.419   4.095   4.234 -0.4051  0.2035  0.4154
14820SOL    HW245902   2.400   4.197   4.124 -0.6414  0.1583  0.4138
14821SOL     OW45903   4.690   6.888  11.385  0.1652 -0.0539 -0.2851
14821SOL    HW145904   4.780   6.897  11.417  0.8546 -0.6714 -1.9476
14821SOL    HW245905   4.659   6.978  11.374  0.5094  0.1612  0.4635
14822SOL     OW45906   5.891   6.970   4.463  0.5116  0.1438 -0.5584
14822SOL    HW145907   5.845   6.886   4.456  0.9282 -0.0746 -0.7425
14822SOL    HW245908   5.958   6.955   4.531  0.8075  0.2176 -0.8300
14823SOL     OW45909   5.131   2.313   9.006 -0.0738  0.3584  0.0230
14823SOL    HW145910   5.117   2.370   9.082  0.2508  1.2951 -0.6071
14823SOL    HW245911   5.098   2.228   9.034 -1.2459  1.0189  0.7343
14824SOL     OW45912   3.084   5.695   6.707  0.2230 -0.5309  0.2706
14824SOL    HW145913   3.078   5.712   6.613 -0.6124 -0.5818  0.3045
14824SOL    HW245914   3.000   5.726   6.742  0.9455  0.4849  1.1673
14825SOL     OW45915   5.074   1.300   6.881  0.2260 -0.3427  0.5309
14825SOL    HW145916   5.011   1.319   6.812  0.3360 -0.8767  0.2794
14825SOL    HW245917   5.029   1.325   6.962  0.0651  0.1975  0.2751
14826SOL     OW45918   4.601   6.114   8.940  0.7732 -0.3194 -0.0507
14826SOL    HW145919   4.659   6.131   8.866 -0.3734 -1.4186 -1.2466
14826SOL    HW245920   4.598   6.019   8.947  1.2021 -0.2442  1.7226
14827SOL     OW45921   0.077   7.756   7.952 -0.1654  0.0910  0.1351
14827SOL    HW145922   0.164   7.721   7.973  0.4548  2.2738  1.5674
14827SOL    HW245923   0.090   7.805   7.871  0.4124  1.7148  1.1387
14828SOL     OW45924   6.846   1.852   5.623 -0.4643  0.0882 -0.7969
14828SOL    HW145925   6.888   1.919   5.677 -1.8010  0.1400  0.2364
14828SOL    HW245926   6.755   1.881   5.615 -1.0456 -1.5144 -0.4369
14829SOL     OW45927   7.144   6.391   8.326 -0.7603 -0.3752 -0.0894
14829SOL    HW145928   7.065   6.360   8.283 -0.9960 -0.7088  0.5654
14829SOL    HW245929   7.212   6.329   8.301 -0.8395 -0.4229 -0.1845
14830SOL     OW45930   2.220   6.308   5.379  0.5389  0.2036 -0.3311
14830SOL    HW145931   2.176   6.352   5.306  1.7586  0.5204 -0.9086
14830SOL    HW245932   2.151   6.259   5.423 -0.5065  1.2130 -0.7961
14831SOL     OW45933   5.402   2.984   7.287  0.0883 -0.3611 -0.4759
14831SOL    HW145934   5.336   2.963   7.353 -0.2729  1.7904 -0.0538
14831SOL    HW245935   5.354   3.033   7.220  0.9768  0.0117 -0.8599
14832SOL     OW45936   3.604   4.936   6.393  0.3760  0.1926  0.8228
14832SOL    HW145937   3.509   4.935   6.383  0.4658  0.8279 -0.2784
14832SOL    HW245938   3.635   4.860   6.344  0.5085  0.6436  0.2009
14833SOL     OW45939   1.773   5.178   1.945 -0.5535  0.3514  0.1028
14833SOL    HW145940   1.820   5.212   1.868  0.2821 -0.9082  0.0291
14833SOL    HW245941   1.817   5.095   1.965 -0.0043  1.1443  2.6034
14834SOL     OW45942   0.274   7.277   1.225  0.0677  0.4046 -0.3960
14834SOL    HW145943   0.271   7.363   1.267 -3.0245  0.5891 -0.7878
14834SOL    HW245944   0.250   7.216   1.294  1.3317 -0.0748 -0.3582
14835SOL     OW45945   2.159   6.990   4.033 -0.4869  0.3915  0.4975
14835SOL    HW145946   2.113   6.906   4.038  1.9519 -1.1335 -0.9301
14835SOL    HW245947   2.225   6.984   4.102  0.0817  0.8686  0.0015
14836SOL     OW45948   1.677   2.743  11.570 -0.2560  0.3397 -0.3023
14836SOL    HW145949   1.754   2.695  11.541  0.1716  1.1956 -0.6144
14836SOL    HW245950   1.706   2.792  11.647 -0.5071  0.6085 -0.3761
14837SOL     OW45951   6.457   5.945   7.663  0.0111  0.3299 -0.5296
14837SOL    HW145952   6.454   6.003   7.739 -0.0216 -0.9313  0.4832
14837SOL    HW245953   6.527   5.980   7.608 -1.0788  2.2387 -0.7659
14838SOL     OW45954   5.297   6.616   1.155  0.1178 -0.2483 -0.7230
14838SOL    HW145955   5.216   6.663   1.135 -0.1294 -0.7363 -0.9070
14838SOL    HW245956   5.307   6.624   1.250  0.7464  1.2110 -0.8946
14839SOL     OW45957   1.737   3.052   1.598  0.2058  0.3422  0.0716
14839SOL    HW145958   1.832   3.052   1.611  0.3932  2.0960 -0.9611
14839SOL    HW245959   1.715   2.960   1.583  1.8656  0.0074 -0.5426
14840SOL     OW45960   6.462   7.764   6.852  0.0665 -0.2318 -0.2163
14840SOL    HW145961   6.547   7.720   6.854  0.9117  1.3162 -0.2672
14840SOL    HW245962   6.482   7.853   6.823 -1.5758  0.1788 -0.1844
14841SOL     OW45963   3.106   7.657  10.550 -0.0865 -0.0726  0.4467
14841SOL    HW145964   3.157   7.576  10.556 -1.5386 -1.0392  0.2743
14841SOL    HW245965   3.062   7.664  10.635 -0.0603  0.4863  0.4177
14842SOL     OW45966   1.750   6.067   3.038 -0.5321 -0.5485  0.0021
14842SOL    HW145967   1.684   6.015   2.992  0.5740 -1.4430 -0.6308
14842SOL    HW245968   1.833   6.023   3.019  0.1295 -0.0887  1.6769
14843SOL     OW45969   6.957   6.993   5.567  0.6346  0.0577  0.3823
14843SOL    HW145970   6.903   6.986   5.488  1.7571 -2.2849 -0.2826
14843SOL    HW245971   7.043   7.020   5.535  1.1328 -1.0431  0.7382
14844SOL     OW45972   3.186   1.251   6.764 -0.2290  0.4332  0.0938
14844SOL    HW145973   3.259   1.224   6.820 -0.6201 -1.6503 -0.2965
14844SOL    HW245974   3.226   1.305   6.696  0.6358  0.8803  0.9386
14845SOL     OW45975   2.107   7.516   2.323  0.6765 -0.2730 -0.0428
14845SOL    HW145976   2.083   7.487   2.235  0.8281 -3.7688  0.9090
14845SOL    HW245977   2.131   7.608   2.312 -0.9266 -0.0787 -3.3053
14846SOL     OW45978   7.675   4.083   5.338 -0.3531  0.2265  0.2469
14846SOL    HW145979   7.586   4.050   5.340 -0.4592  0.4657 -0.3069
14846SOL    HW245980   7.704   4.080   5.429 -1.2508  1.0167  0.5737
14847SOL     OW45981   5.547   6.053   4.540 -0.6902  0.1846  0.1661
14847SOL    HW145982   5.537   6.143   4.570  1.4399 -0.0793  1.9046
14847SOL    HW245983   5.563   6.061   4.445 -2.8163  1.3976 -0.1447
14848SOL     OW45984   4.829   1.424   3.126  0.1474 -0.1685  0.0757
14848SOL    HW145985   4.839   1.337   3.164 -1.6385 -0.2244  0.4936
14848SOL    HW245986   4.752   1.461   3.169  1.2833  1.9306  0.4616
14849SOL     OW45987   6.116   7.042  11.936 -0.1715 -0.1681 -0.1025
14849SOL    HW145988   6.166   7.078  12.009 -1.0356  1.0975 -0.0953
14849SOL    HW245989   6.051   7.110  11.916 -1.1822 -1.2981 -0.7985
14850SOL     OW45990   0.153   1.462   0.625 -0.0037  0.1178  0.1322
14850SOL    HW145991   0.181   1.450   0.715 -1.5994 -0.9581  0.5323
14850SOL    HW245992   0.126   1.375   0.596  1.3171  0.2492 -1.7094
14851SOL     OW45993   2.914   5.747   9.741 -0.0106 -0.1119 -0.2262
14851SOL    HW145994   2.867   5.831   9.730  0.5827  0.3266  0.5419
14851SOL    HW245995   2.972   5.761   9.815  0.7720 -0.9156 -0.6667
14852SOL     OW45996   2.582   4.453   9.836  0.1086  0.1600  0.2096
14852SOL    HW145997   2.516   4.384   9.846  1.0468 -0.4125  4.1199
14852SOL    HW245998   2.533   4.535   9.850 -0.5127  0.1585 -1.6822
14853SOL     OW45999   5.639   1.282   4.799  0.5072  0.0088  0.7441
14853SOL    HW146000   5.688   1.362   4.822  1.8288 -1.0496  1.8102
14853SOL    HW246001   5.635   1.232   4.881 -2.0206 -0.1854  0.5798
14854SOL     OW46002   0.271   7.822   5.347 -0.2343  0.4815 -1.0394
14854SOL    HW146003   0.228   7.880   5.283 -1.9483 -1.5914 -1.8863
14854SOL    HW246004   0.200   7.767   5.380  1.3657 -1.4342 -0.6262
14855SOL     OW46005   6.160   7.724   7.115 -0.1093 -0.4158 -0.0576
14855SOL    HW146006   6.165   7.748   7.208 -0.3780  0.4794 -0.2614
14855SOL    HW246007   6.203   7.639   7.110 -1.4326 -1.2024  1.1270
14856SOL     OW46008   0.823   3.252   7.217 -0.4557 -0.1090  0.0067
14856SOL    HW146009   0.740   3.233   7.175 -0.4205  0.8418 -0.5202
14856SOL    HW246010   0.807   3.333   7.266  0.7890  1.5041 -2.0928
14857SOL     OW46011   5.795   5.949   3.284  0.3327  0.0574  0.8238
14857SOL    HW146012   5.707   5.935   3.319 -0.2109  0.6120 -0.2567
14857SOL    HW246013   5.845   5.983   3.358  0.1024 -1.7470  1.8972
14858SOL     OW46014   0.292   2.328   6.833  0.0765  0.1448  0.1436
14858SOL    HW146015   0.280   2.247   6.882  0.5587  0.1888  0.3437
14858SOL    HW246016   0.210   2.340   6.785  0.3575 -0.9925 -0.6718
14859SOL     OW46017   7.441   2.081   6.349  0.3290 -0.4864  0.0348
14859SOL    HW146018   7.527   2.122   6.355  0.4070 -0.3992 -1.3872
14859SOL    HW246019   7.400   2.098   6.433  2.6650 -2.7774  1.8011
14860SOL     OW46020   5.733   5.147   9.307 -0.1363  0.3633  0.0478
14860SOL    HW146021   5.646   5.157   9.346 -0.5996 -0.0741 -0.8319
14860SOL    HW246022   5.776   5.231   9.324 -0.7697  0.6286  0.3939
14861SOL     OW46023   0.050   5.852   1.089 -0.3150 -0.1831  0.3291
14861SOL    HW146024   0.088   5.765   1.085  0.4473  0.1147  0.7744
14861SOL    HW246025  -0.044   5.837   1.100 -0.0255 -0.9712  2.0142
14862SOL     OW46026   5.554   5.165  11.449 -0.1556 -0.2691  0.1916
14862SOL    HW146027   5.485   5.195  11.508  0.5379  1.4592  0.1992
14862SOL    HW246028   5.509   5.138  11.370 -0.8604  0.6715  0.2648
14863SOL     OW46029   2.940   1.304   4.384  0.3960 -0.4953  0.1394
14863SOL    HW146030   2.956   1.328   4.293  1.5521  0.2619  0.5151
14863SOL    HW246031   3.017   1.252   4.409  1.9400  2.2689  1.6773
14864SOL     OW46032   7.687   4.908   7.087 -1.0790 -0.4972  0.5238
14864SOL    HW146033   7.688   4.917   7.183 -1.7134  0.0513  0.4895
14864SOL    HW246034   7.625   4.976   7.058  0.5086  0.6168 -0.4102
14865SOL     OW46035   5.664   7.921   8.269 -0.1637  0.2871 -0.3122
14865SOL    HW146036   5.593   7.982   8.290 -0.2790 -0.5602  2.1691
14865SOL    HW246037   5.620   7.846   8.230 -0.3693  0.5925 -0.6783
14866SOL     OW46038   6.886   6.516   6.035  0.3779  0.2424 -0.7481
14866SOL    HW146039   6.955   6.478   6.090 -0.9531  0.5261  1.2084
14866SOL    HW246040   6.895   6.611   6.048 -2.6615  0.2692  2.7086
14867SOL     OW46041   3.993   5.721   7.732 -1.0925 -0.7217  0.2779
14867SOL    HW146042   4.045   5.777   7.674 -2.0263 -0.6685 -0.5493
14867SOL    HW246043   4.021   5.745   7.820 -0.2303 -0.2027 -0.1212
14868SOL     OW46044   6.950   7.674   0.338  0.2471 -0.2455  0.7912
14868SOL    HW146045   6.870   7.622   0.333  0.5430 -0.7220  0.9395
14868SOL    HW246046   7.003   7.643   0.264 -0.7623  1.9078 -0.9601
14869SOL     OW46047   3.288   1.373   3.504 -0.1197 -0.0893 -0.0788
14869SOL    HW146048   3.321   1.300   3.453  0.5140  0.7549 -0.9032
14869SOL    HW246049   3.359   1.437   3.504 -0.6734  0.5469  0.6008
14870SOL     OW46050   5.322   6.799   9.808 -0.3311  0.9322 -0.1699
14870SOL    HW146051   5.341   6.892   9.808  0.6376  0.7466 -0.4121
14870SOL    HW246052   5.395   6.759   9.759 -1.4806  0.1987 -1.3640
14871SOL     OW46053   3.775   6.870   1.407  0.4546 -0.4434 -0.1899
14871SOL    HW146054   3.701   6.926   1.433  1.1005 -0.0660  0.9037
14871SOL    HW246055   3.769   6.866   1.312  0.9900  2.3890 -0.4257
14872SOL     OW46056   6.355   2.508   0.155  0.2526  0.5449  0.1015
14872SOL    HW146057   6.263   2.532   0.149  0.0380  0.2420  1.6803
14872SOL    HW246058   6.365   2.474   0.244  1.6540 -0.4271 -0.3845
14873SOL     OW46059   2.988   2.868   0.696 -0.2685  0.2462  0.7693
14873SOL    HW146060   2.960   2.782   0.665  0.2340 -0.1703  1.4403
14873SOL    HW246061   3.030   2.908   0.621 -2.0378  0.6214 -0.0692
14874SOL     OW46062   5.688   4.023  11.374  0.0095  0.5227 -0.3513
14874SOL    HW146063   5.678   3.993  11.465  0.8774  0.1454 -0.3763
14874SOL    HW246064   5.631   4.099  11.368  1.3433  1.6829  1.0368
14875SOL     OW46065   6.461   0.938  12.012 -0.6457  0.3628  0.0207
14875SOL    HW146066   6.388   0.966  12.066 -0.5298  1.1176 -0.2029
14875SOL    HW246067   6.435   0.961  11.923  0.4148  1.8733  0.0732
14876SOL     OW46068   5.528   5.074   2.115  0.3325  0.2247 -0.3057
14876SOL    HW146069   5.605   5.086   2.171  0.7547 -2.2620 -0.2227
14876SOL    HW246070   5.529   4.981   2.093 -1.9910  0.3689 -1.3174
14877SOL     OW46071   4.313   1.137  10.111  0.6324 -0.1856  0.2194
14877SOL    HW146072   4.294   1.123  10.018 -0.3198 -2.1291  0.6528
14877SOL    HW246073   4.408   1.125  10.118  0.5326 -1.4922 -0.3190
14878SOL     OW46074   3.289   3.987   0.250  0.4557  0.1293 -0.5021
14878SOL    HW146075   3.248   3.917   0.200 -1.2573  0.2000  0.6901
14878SOL    HW246076   3.378   3.955   0.268  0.1262 -1.1670 -1.0483
14879SOL     OW46077   5.804   5.310  12.312  0.2037 -0.0243 -0.4508
14879SOL    HW146078   5.761   5.366  12.376  0.7816  1.0627 -0.9873
14879SOL    HW246079   5.885   5.283  12.355  1.1650  1.6621 -1.1137
14880SOL     OW46080   2.695   6.830   9.903  0.2020  0.2211  0.6633
14880SOL    HW146081   2.756   6.759   9.923 -0.1115 -0.3936 -0.4606
14880SOL    HW246082   2.695   6.885   9.982  2.7810  0.6880  0.4236
14881SOL     OW46083   4.363   7.340   2.881 -0.0511  0.8474  0.3911
14881SOL    HW146084   4.425   7.290   2.828 -1.1138  0.2230 -0.3120
14881SOL    HW246085   4.299   7.275   2.911 -0.0485  1.3708  1.5872
14882SOL     OW46086   1.561   0.919   2.874  0.2222 -0.3925 -0.0739
14882SOL    HW146087   1.647   0.902   2.913 -0.1035 -0.1462  0.7656
14882SOL    HW246088   1.581   0.963   2.792  0.8753  0.8253  0.7017
14883SOL     OW46089   6.030   2.225   7.685  0.0621 -0.3761  1.2984
14883SOL    HW146090   6.007   2.239   7.593 -0.9438 -0.5354  1.5167
14883SOL    HW246091   5.946   2.214   7.729  0.5874 -1.6719  2.0193
14884SOL     OW46092   1.714   2.958   2.728  0.2050 -0.0286 -0.1473
14884SOL    HW146093   1.697   2.955   2.634 -0.7414  0.2847  0.0018
14884SOL    HW246094   1.673   3.040   2.757 -0.4212 -0.6264  0.7085
14885SOL     OW46095   3.183   1.342   9.101 -0.1150  0.0134 -0.4136
14885SOL    HW146096   3.088   1.339   9.111 -0.1606  1.6685 -0.0617
14885SOL    HW246097   3.197   1.336   9.007 -0.8543  3.4824 -0.8850
14886SOL     OW46098   3.401   4.996   0.461  0.6085 -0.0540  0.4265
14886SOL    HW146099   3.453   5.077   0.463 -0.5954  0.8850 -2.1357
14886SOL    HW246100   3.314   5.023   0.433  0.2577 -2.2602 -0.9127
14887SOL     OW46101   5.317   7.946   8.095 -0.0585 -0.3382 -0.3258
14887SOL    HW146102   5.386   7.883   8.113  0.6828 -0.3943 -2.9575
14887SOL    HW246103   5.352   8.029   8.126  1.5888 -0.2421 -2.1805
14888SOL     OW46104   7.193   5.834   6.569 -0.4368  0.3660  0.1626
14888SOL    HW146105   7.219   5.837   6.661 -0.5168  1.0813  0.1718
14888SOL    HW246106   7.187   5.926   6.543 -0.5645  0.1731 -0.5161
14889SOL     OW46107   6.648   0.515   9.747 -0.7336  0.0474 -1.1420
14889SOL    HW146108   6.715   0.450   9.724  0.2197 -0.3937  2.3159
14889SOL    HW246109   6.665   0.588   9.687  1.7790 -0.7399 -1.5273
14890SOL     OW46110   6.690   5.122   1.994 -0.0595 -0.2189  0.3147
14890SOL    HW146111   6.625   5.175   1.947 -0.4250 -0.3904  0.6196
14890SOL    HW246112   6.646   5.039   2.011 -0.4641  0.3254  2.2044
14891SOL     OW46113   0.223   3.032   0.384 -0.2531  0.1868 -0.0293
14891SOL    HW146114   0.276   2.976   0.440 -0.7025 -0.1767  0.0397
14891SOL    HW246115   0.173   3.087   0.445  0.7864  1.2517 -0.1005
14892SOL     OW46116   0.348   1.470   0.851  0.0049 -0.2662  0.4932
14892SOL    HW146117   0.419   1.411   0.826 -0.2905 -1.9670  3.2077
14892SOL    HW246118   0.392   1.547   0.887  0.3832  0.6510 -1.7439
14893SOL     OW46119   5.962   0.841   1.151  0.3620 -0.2315  0.2672
14893SOL    HW146120   5.983   0.773   1.087 -0.3319  0.3781 -0.6444
14893SOL    HW246121   6.046   0.881   1.172  0.5407 -0.0160 -0.7770
14894SOL     OW46122   7.544   4.740   2.654  0.1695  0.3016  0.0283
14894SOL    HW146123   7.622   4.796   2.665  1.2794 -1.2445  0.3118
14894SOL    HW246124   7.516   4.720   2.743  0.6680 -0.7619 -0.0402
14895SOL     OW46125   4.271   4.301  11.159 -0.0251 -0.2442 -0.4086
14895SOL    HW146126   4.235   4.291  11.248  0.4466  1.7351  0.0536
14895SOL    HW246127   4.365   4.312  11.172  0.4284 -2.5498 -1.4003
14896SOL     OW46128   5.871   3.540   4.318  0.0961 -0.3492  0.4972
14896SOL    HW146129   5.956   3.553   4.359  1.3102 -2.8723 -1.0193
14896SOL    HW246130   5.877   3.587   4.234  0.2421 -1.0510  0.1098
14897SOL     OW46131   1.859   5.352   2.678 -0.8884 -0.8279  0.0298
14897SOL    HW146132   1.820   5.431   2.640  2.3988  2.1855  2.2808
14897SOL    HW246133   1.929   5.328   2.618 -1.8616 -2.1397 -0.6354
14898SOL     OW46134   1.809   2.703   6.267 -0.6143  0.3750  0.1003
14898SOL    HW146135   1.758   2.674   6.191 -1.6305 -0.2050  0.9747
14898SOL    HW246136   1.885   2.747   6.229 -2.1823  2.0497 -1.2508
14899SOL     OW46137   3.590   5.044  11.855 -0.1565  0.4012  0.8592
14899SOL    HW146138   3.647   5.089  11.792 -1.5093  3.0630  1.3946
14899SOL    HW246139   3.613   5.082  11.939  1.2520 -2.7286  2.0475
14900SOL     OW46140   0.516   1.702   4.758  0.2159  0.4323  0.1504
14900SOL    HW146141   0.448   1.748   4.807 -1.8509 -0.2959 -1.8489
14900SOL    HW246142   0.598   1.723   4.804 -0.7136  4.9469  0.2139
14901SOL     OW46143   6.173   7.673  12.147  0.0182 -0.1276  0.5629
14901SOL    HW146144   6.157   7.691  12.055  2.5444 -1.4783 -0.2366
14901SOL    HW246145   6.143   7.583  12.159  1.2378 -0.5501  0.5819
14902SOL     OW46146   1.966   7.530   7.174 -0.1239 -0.3372 -0.0651
14902SOL    HW146147   1.970   7.605   7.115 -0.7731 -1.9729 -2.3594
14902SOL    HW246148   1.893   7.477   7.140 -0.0972 -1.6981  1.8321
14903SOL     OW46149   0.337   1.375   8.299  0.4906  0.2775 -0.0753
14903SOL    HW146150   0.391   1.372   8.377  0.2787  0.0626  0.0636
14903SOL    HW246151   0.397   1.400   8.229  1.0101 -1.0098 -0.1235
14904SOL     OW46152   5.646   4.302   0.708 -0.2911  0.2401 -0.0210
14904SOL    HW146153   5.620   4.384   0.750 -0.2344 -0.1928  0.8786
14904SOL    HW246154   5.591   4.297   0.630  1.3720  2.3295 -1.4511
14905SOL     OW46155   3.747   6.638  10.095  0.2117 -0.3770  0.2241
14905SOL    HW146156   3.684   6.631  10.023 -0.2893  2.2121  0.2984
14905SOL    HW246157   3.832   6.651  10.052  0.4311 -1.9982  0.1284
14906SOL     OW46158   0.065   6.517  11.383 -0.3970  0.3349  0.2800
14906SOL    HW146159   0.067   6.500  11.477 -0.0111 -1.8614 -0.0768
14906SOL    HW246160   0.024   6.440  11.345  3.6327 -1.1245 -1.7328
14907SOL     OW46161   1.568   6.687   0.104 -0.3154 -0.2133 -0.0048
14907SOL    HW146162   1.632   6.757   0.096 -0.9745  0.3308 -0.7744
14907SOL    HW246163   1.515   6.694   0.024 -2.7229  0.7800  1.5341
14908SOL     OW46164   5.708   7.183   7.230  0.2118  0.4959 -0.0588
14908SOL    HW146165   5.782   7.233   7.264  0.6386 -0.3680  0.3311
14908SOL    HW246166   5.632   7.238   7.247  0.6986  1.1574  0.0372
14909SOL     OW46167   6.231   3.269   0.425 -0.1744  0.5212  0.6856
14909SOL    HW146168   6.301   3.267   0.490  1.6412  1.7597 -1.1096
14909SOL    HW246169   6.192   3.356   0.434  1.6759  1.6650 -1.3322
14910SOL     OW46170   5.926   5.042   1.435  0.5327 -0.4033 -0.5433
14910SOL    HW146171   6.013   5.076   1.456  0.7246 -0.1929 -1.6055
14910SOL    HW246172   5.920   4.960   1.483  0.9007  0.0824  0.3688
14911SOL     OW46173   6.827   4.557   8.337 -0.3385 -0.3819 -0.4017
14911SOL    HW146174   6.842   4.469   8.372 -0.7025 -0.6123 -0.8117
14911SOL    HW246175   6.744   4.551   8.290 -0.7066  0.3576  0.1231
14912SOL     OW46176   5.530   7.479   5.759  0.6927  0.2733 -0.1889
14912SOL    HW146177   5.571   7.559   5.792 -0.6032  1.0470 -0.3658
14912SOL    HW246178   5.474   7.509   5.687 -2.8792 -0.1492  2.2104
14913SOL     OW46179   0.932   3.407  11.113  0.1913  0.2176  0.1465
14913SOL    HW146180   1.013   3.436  11.155  0.0018 -1.1810  1.5458
14913SOL    HW246181   0.948   3.315  11.091 -1.1379 -0.1841  0.7838
14914SOL     OW46182   1.449   4.081   6.758 -0.0491 -1.0175 -0.3390
14914SOL    HW146183   1.502   4.152   6.795 -1.3644  0.4789 -1.2227
14914SOL    HW246184   1.496   4.055   6.679  1.3130 -2.3480  0.8243
14915SOL     OW46185   1.629   1.472   5.108  0.4294  0.3318 -0.5341
14915SOL    HW146186   1.576   1.549   5.126  0.7763  0.1690  1.4616
14915SOL    HW246187   1.576   1.399   5.142  1.4442  0.0615  0.5232
14916SOL     OW46188   2.840   1.108   0.565 -0.3551 -0.4859  0.0294
14916SOL    HW146189   2.770   1.118   0.630  1.5863  0.4183  2.1368
14916SOL    HW246190   2.828   1.182   0.505  0.8245  1.9514  2.5331
14917SOL     OW46191   5.179   0.523   0.628  0.2112  0.5050  0.3878
14917SOL    HW146192   5.197   0.487   0.715 -0.9616  1.7405  1.1783
14917SOL    HW246193   5.239   0.598   0.621 -0.6383  1.2289  0.7139
14918SOL     OW46194   0.999   6.185  10.051 -0.3385 -0.2966  0.2699
14918SOL    HW146195   1.092   6.163  10.053 -0.1247  0.1280 -2.0248
14918SOL    HW246196   0.954   6.102  10.071  0.5034 -0.7942  0.1461
14919SOL     OW46197   1.460   2.940   0.512 -0.4914 -0.3333 -0.0218
14919SOL    HW146198   1.447   3.025   0.555 -3.2176 -0.3933 -0.5539
14919SOL    HW246199   1.513   2.961   0.435 -0.1919  0.6989  0.4396
14920SOL     OW46200   6.553   7.459   9.814  0.0641  0.0662 -0.6626
14920SOL    HW146201   6.470   7.415   9.834 -0.2410  0.4998 -0.9463
14920SOL    HW246202   6.549   7.474   9.719  1.7495 -2.5402 -1.2441
14921SOL     OW46203   1.561   7.647   4.821  0.4654 -0.7149 -0.3414
14921SOL    HW146204   1.536   7.670   4.910 -1.3422 -2.3867 -0.3444
14921SOL    HW246205   1.629   7.581   4.832  2.0030  0.8016 -0.2882
14922SOL     OW46206   1.861   0.931   1.921 -0.1330 -0.1315 -0.0764
14922SOL    HW146207   1.768   0.917   1.904 -0.4619  0.1334  1.3788
14922SOL    HW246208   1.873   0.903   2.012  0.4881  2.9327  0.9020
14923SOL     OW46209   1.768   7.550   5.855  0.2435 -0.2500 -0.0702
14923SOL    HW146210   1.823   7.538   5.932 -0.5488 -1.4485  0.3392
14923SOL    HW246211   1.702   7.614   5.883  1.6478  1.5841 -0.7213
14924SOL     OW46212   5.484   5.363   1.641 -0.3050  0.0963 -0.1574
14924SOL    HW146213   5.427   5.424   1.594 -0.5155 -1.3482 -1.8909
14924SOL    HW246214   5.481   5.393   1.732 -1.9555  1.4687 -0.6012
14925SOL     OW46215   2.658   1.165  11.414 -0.2409  0.2645 -0.9556
14925SOL    HW146216   2.590   1.133  11.473  1.7668  2.4676  2.9663
14925SOL    HW246217   2.718   1.091  11.405  0.2624  0.3302  1.2921
14926SOL     OW46218   7.796   7.656   0.841 -0.3304  0.4009  0.1063
14926SOL    HW146219   7.800   7.649   0.745  0.4117 -1.0875  0.2202
14926SOL    HW246220   7.876   7.703   0.865 -0.0510 -0.0517  0.0625
14927SOL     OW46221   7.336   5.740   4.130 -0.2176 -0.3939 -0.3661
14927SOL    HW146222   7.309   5.823   4.169 -0.0503 -0.9903  1.0761
14927SOL    HW246223   7.254   5.694   4.111 -0.2846 -0.5395  0.2719
14928SOL     OW46224   2.875   2.424  11.126 -0.2749  0.8138  0.4800
14928SOL    HW146225   2.845   2.507  11.163 -1.4631  0.9499 -0.7201
14928SOL    HW246226   2.919   2.449  11.044 -0.1924  0.3117  0.3661
14929SOL     OW46227   7.483   1.296   1.576 -0.2065  0.1475 -0.6070
14929SOL    HW146228   7.507   1.347   1.653  1.3771  0.5867 -1.3513
14929SOL    HW246229   7.566   1.269   1.537 -0.9451  0.1485 -2.3088
14930SOL     OW46230   4.498   0.351   5.863 -0.3601 -0.5270 -0.9271
14930SOL    HW146231   4.455   0.430   5.831 -0.1926 -0.1963 -0.3556
14930SOL    HW246232   4.579   0.383   5.902 -1.9181 -0.5047  2.6085
14931SOL     OW46233   4.149   6.221   8.097  0.5326 -0.4125  0.3301
14931SOL    HW146234   4.145   6.273   8.177  0.8519 -0.0863  0.1363
14931SOL    HW246235   4.118   6.280   8.028 -1.5771 -1.2487  0.4622
14932SOL     OW46236   6.728   7.824   5.509 -0.2578  0.4740 -0.0943
14932SOL    HW146237   6.710   7.743   5.462  1.9670 -1.3246  1.8514
14932SOL    HW246238   6.805   7.860   5.465  1.0397 -0.5347  1.2480
14933SOL     OW46239   7.785   6.219   4.525 -0.3606 -0.4531 -0.4711
14933SOL    HW146240   7.879   6.230   4.508 -0.0953  1.1091  1.6572
14933SOL    HW246241   7.744   6.295   4.484 -0.3265  0.3670  0.9365
14934SOL     OW46242   2.601   4.835   0.285 -0.0955 -0.2632  0.7083
14934SOL    HW146243   2.617   4.891   0.209 -2.8702  2.1855  1.7575
14934SOL    HW246244   2.685   4.832   0.330  0.9523  0.3408 -1.0885
14935SOL     OW46245   1.574   6.380   8.366  0.2773 -0.8518  0.2087
14935SOL    HW146246   1.602   6.467   8.336  2.0013 -1.3252  0.3284
14935SOL    HW246247   1.480   6.388   8.380  0.5129  1.1979  0.8845
14936SOL     OW46248   2.073   2.897   4.018  0.1463 -0.4048  0.5541
14936SOL    HW146249   2.043   2.811   3.989  0.7953 -0.6969  0.7320
14936SOL    HW246250   2.103   2.940   3.938 -2.5142  0.6684  0.0187
14937SOL     OW46251   7.174   1.570   8.678 -0.2037  0.0196  0.0535
14937SOL    HW146252   7.112   1.582   8.606 -2.2267  2.2026  1.9894
14937SOL    HW246253   7.119   1.566   8.757  2.0026 -0.3883  1.6631
14938SOL     OW46254   3.631   2.526   6.498  0.1087  0.0203 -0.1651
14938SOL    HW146255   3.648   2.604   6.445  1.0543  0.6275  0.9891
14938SOL    HW246256   3.706   2.521   6.557 -0.3647 -1.2894  0.3428
14939SOL     OW46257   0.342   5.565   0.152  0.3939 -0.1072 -0.4459
14939SOL    HW146258   0.421   5.553   0.099  1.1580 -0.4414  0.7326
14939SOL    HW246259   0.365   5.633   0.215  0.7452 -2.0893  1.6944
14940SOL     OW46260   4.286   1.846  10.954  0.1986 -0.0534 -1.0055
14940SOL    HW146261   4.250   1.807  10.874 -1.8088 -1.8259  0.6508
14940SOL    HW246262   4.210   1.886  10.997  0.7937 -1.0161  1.0351
14941SOL     OW46263   5.002   0.470   8.049  0.1006  1.1653  0.4662
14941SOL    HW146264   4.922   0.416   8.050  1.0650 -0.4073  3.3188
14941SOL    HW246265   4.975   0.553   8.088  0.0531  0.1084  2.8859
14942SOL     OW46266   0.923   3.900   7.996 -0.2142 -0.5394  0.3228
14942SOL    HW146267   0.978   3.863   7.927 -2.1533 -0.1267 -1.5356
14942SOL    HW246268   0.970   3.979   8.023  0.6966 -0.8273 -0.3531
14943SOL     OW46269   6.651   3.490   7.731 -0.9297 -0.0816  0.2573
14943SOL    HW146270   6.722   3.496   7.666 -0.7014 -0.4826  0.4692
14943SOL    HW246271   6.642   3.580   7.764  0.1560 -0.2033  0.9423
14944SOL     OW46272   0.302   3.202   6.699  0.4617 -0.0765  0.1577
14944SOL    HW146273   0.292   3.293   6.672  0.3812  0.6657  2.4803
14944SOL    HW246274   0.213   3.173   6.721  0.3699 -1.0059 -1.3240
14945SOL     OW46275   3.301   2.671  11.208  0.4227  0.1560 -0.0520
14945SOL    HW146276   3.305   2.746  11.147  1.2607 -0.6359 -1.0165
14945SOL    HW246277   3.379   2.682  11.263 -0.2598  0.7938  0.8201
14946SOL     OW46278   7.915   4.238   9.812 -0.3047 -0.0315  0.0424
14946SOL    HW146279   7.878   4.283   9.888 -0.2647  1.6343 -0.8727
14946SOL    HW246280   7.842   4.234   9.749  0.1131  0.1512 -0.4587
14947SOL     OW46281   6.502   1.040   5.129 -0.4810  0.5357 -0.3579
14947SOL    HW146282   6.587   1.080   5.113 -0.8945  1.1952 -0.9761
14947SOL    HW246283   6.450   1.063   5.052 -1.2799  0.3047  0.1023
14948SOL     OW46284   6.272   6.514   7.291  0.8081 -0.2907 -0.1866
14948SOL    HW146285   6.185   6.544   7.264  1.4003  0.4067 -1.3763
14948SOL    HW246286   6.326   6.593   7.292  1.0958 -0.4529  2.0844
14949SOL     OW46287   5.407   7.805   1.360  0.2253  0.1941  0.4102
14949SOL    HW146288   5.464   7.763   1.295  2.0606  0.6031  1.6708
14949SOL    HW246289   5.440   7.894   1.367 -1.4265  0.8402  0.2659
14950SOL     OW46290   7.854   3.748   0.403 -0.5033  0.4475  0.3121
14950SOL    HW146291   7.862   3.682   0.471 -2.8857 -0.7799 -0.4801
14950SOL    HW246292   7.933   3.738   0.350  0.4293  0.0959  1.7216
14951SOL     OW46293   7.483   2.971   2.795  0.0131 -0.0890  0.3879
14951SOL    HW146294   7.509   2.905   2.859 -1.0256 -1.3762 -0.4573
14951SOL    HW246295   7.563   2.989   2.745  0.5883  0.1947  1.3901
14952SOL     OW46296   7.084   1.153   9.023  0.0338  0.3155  0.6152
14952SOL    HW146297   7.012   1.110   8.976  1.2976  0.2930 -1.3977
14952SOL    HW246298   7.110   1.089   9.089  0.2114 -1.0058 -0.6678
14953SOL     OW46299   5.078   4.229  10.193  0.6478 -0.4914 -0.4645
14953SOL    HW146300   5.122   4.207  10.111  3.0570  1.3578  0.1971
14953SOL    HW246301   5.129   4.182  10.260  0.4514  0.1894  0.1779
14954SOL     OW46302   3.399   3.045   0.755  0.1301 -0.1620 -0.3299
14954SOL    HW146303   3.407   3.064   0.662  0.1320  1.0478 -0.1022
14954SOL    HW246304   3.394   2.949   0.760  0.7020 -0.2710 -1.5165
14955SOL     OW46305   6.259   6.976   5.068  0.0115  0.1075 -0.0841
14955SOL    HW146306   6.165   6.956   5.060  0.4397 -2.5109  0.4652
14955SOL    HW246307   6.300   6.926   4.998  1.3973 -3.0679  2.7080
14956SOL     OW46308   7.957   6.205  10.441 -0.4486 -0.3230  0.4853
14956SOL    HW146309   7.880   6.260  10.448 -0.2547  0.0630 -0.2697
14956SOL    HW246310   7.951   6.144  10.515 -2.2662 -1.2964 -0.4155
14957SOL     OW46311   4.118   4.735  12.123 -0.3811 -0.4025 -0.4255
14957SOL    HW146312   4.119   4.730  12.028 -0.4239  1.3287 -0.5531
14957SOL    HW246313   4.067   4.659  12.151  1.4280 -2.1704 -1.6350
14958SOL     OW46314   5.976   1.992   8.773 -0.3446  0.1775  0.2522
14958SOL    HW146315   5.941   2.080   8.771  0.6204  0.5585 -1.1460
14958SOL    HW246316   5.902   1.935   8.752 -0.2580  0.9508 -2.5084
14959SOL     OW46317   0.937   5.570   2.704 -0.3043  0.4041 -0.2998
14959SOL    HW146318   1.025   5.601   2.680 -0.5556  1.4900  0.1512
14959SOL    HW246319   0.940   5.476   2.684  0.6131  0.6100 -1.2977
14960SOL     OW46320   1.056   0.204   6.166  0.5702 -0.1974 -0.2130
14960SOL    HW146321   0.982   0.212   6.106  1.3079 -0.7526 -1.2279
14960SOL    HW246322   1.126   0.164   6.113  1.5733  0.2460  0.7355
14961SOL     OW46323   3.905   6.869   6.037  0.0137 -0.2523 -0.1925
14961SOL    HW146324   3.847   6.934   6.076  0.0494 -1.4641  2.0560
14961SOL    HW246325   3.965   6.845   6.108  0.0310 -2.6778 -0.9470
14962SOL     OW46326   0.025   3.035   3.707  0.3109 -0.1183  0.0839
14962SOL    HW146327   0.028   3.129   3.725 -1.9100  0.0552 -0.2239
14962SOL    HW246328  -0.013   3.029   3.619  0.2690 -1.3173  0.1703
14963SOL     OW46329   0.480   1.675  11.155  0.0859 -0.0190  0.4986
14963SOL    HW146330   0.572   1.672  11.131 -0.2543 -0.2915 -0.8052
14963SOL    HW246331   0.480   1.654  11.249  1.2931 -0.5216  0.4074
14964SOL     OW46332   1.158   5.162  11.343 -0.4882  0.1049  0.1505
14964SOL    HW146333   1.082   5.192  11.293 -0.3383 -0.1911 -0.2656
14964SOL    HW246334   1.129   5.163  11.434 -1.0336 -0.1186 -0.0171
14965SOL     OW46335   6.670   0.866   3.913 -0.6426  0.6846  0.0506
14965SOL    HW146336   6.679   0.950   3.960  0.8545 -0.5362  2.1161
14965SOL    HW246337   6.753   0.855   3.867 -0.9314  0.4377 -0.4201
14966SOL     OW46338   7.893   1.775   6.622  0.1241  0.2675  0.6508
14966SOL    HW146339   7.974   1.788   6.574  0.3282 -1.5602  0.4572
14966SOL    HW246340   7.853   1.698   6.582 -0.0347 -0.9226  2.9284
14967SOL     OW46341   5.059   4.175   2.175  0.2192 -0.4811 -0.6611
14967SOL    HW146342   5.047   4.161   2.081  0.3424  0.1265 -0.7727
14967SOL    HW246343   5.071   4.270   2.184  0.3440 -0.5486 -0.0477
14968SOL     OW46344   5.641   6.996   5.975 -0.7045 -0.0076  0.0327
14968SOL    HW146345   5.666   7.077   6.020 -0.8393  0.1028 -0.0910
14968SOL    HW246346   5.644   6.929   6.044 -0.4757  0.0810  0.1082
14969SOL     OW46347   4.535   0.811   2.026  0.1921 -0.4712 -0.0119
14969SOL    HW146348   4.527   0.844   2.115 -1.2312 -0.1838 -0.2204
14969SOL    HW246349   4.588   0.732   2.034  2.7639  1.1771  0.6503
14970SOL     OW46350   5.072   6.759   1.126  0.1251 -0.5820 -0.5487
14970SOL    HW146351   5.059   6.819   1.052  1.1815 -0.2930 -0.5157
14970SOL    HW246352   4.988   6.713   1.134 -0.0719 -0.4859 -1.8010
14971SOL     OW46353   5.668   2.016   4.434 -0.2139 -0.4611 -0.1305
14971SOL    HW146354   5.706   2.046   4.517 -1.1916  0.1079  0.1254
14971SOL    HW246355   5.692   1.924   4.429  0.9703 -0.1894  0.1404
14972SOL     OW46356   4.949   4.458   1.528 -0.3420 -0.1934 -0.1553
14972SOL    HW146357   5.008   4.482   1.600 -0.6961 -2.2121  0.8806
14972SOL    HW246358   4.861   4.463   1.566 -0.5143 -1.5780 -0.3220
14973SOL     OW46359   0.805   2.126   3.162 -1.0528  0.0711 -0.8518
14973SOL    HW146360   0.770   2.039   3.144  1.5188 -1.1347 -0.5045
14973SOL    HW246361   0.750   2.185   3.111 -3.3811 -1.6383 -0.4627
14974SOL     OW46362   7.650   1.556   7.153 -0.3873  0.6226  0.1646
14974SOL    HW146363   7.741   1.559   7.181 -0.3469  0.7374  0.0227
14974SOL    HW246364   7.654   1.560   7.057 -0.4199 -1.7554 -0.0001
14975SOL     OW46365   3.209   2.396   6.744 -0.9252 -0.7429  0.4243
14975SOL    HW146366   3.248   2.321   6.788 -1.5805 -1.5224 -0.2838
14975SOL    HW246367   3.173   2.450   6.815  0.6750 -0.4224  1.0192
14976SOL     OW46368   0.691   1.851   5.912 -0.2959  0.0212 -0.3424
14976SOL    HW146369   0.632   1.776   5.907 -0.9084  0.5315 -0.9086
14976SOL    HW246370   0.645   1.914   5.968 -1.0958  1.1088 -2.1483
14977SOL     OW46371   5.095   4.824   5.030 -0.2421  0.1152  0.4188
14977SOL    HW146372   5.078   4.753   5.093  0.5245  0.0722  0.5973
14977SOL    HW246373   5.064   4.903   5.074 -1.9925 -0.2140 -0.1745
14978SOL     OW46374   6.619   7.842  12.282  0.2157  0.0553 -0.2144
14978SOL    HW146375   6.556   7.898  12.237 -2.1206 -1.8589  0.4908
14978SOL    HW246376   6.624   7.877  12.371 -0.3779 -0.1400 -0.0970
14979SOL     OW46377   7.067   5.906  11.319 -0.1720  0.2023  0.0142
14979SOL    HW146378   7.010   5.842  11.361  1.3666 -0.1966  1.6200
14979SOL    HW246379   7.152   5.862  11.313  0.6417  1.6957  0.1473
14980SOL     OW46380   7.396   7.860   7.707  0.7065 -0.0543 -0.8396
14980SOL    HW146381   7.410   7.937   7.762  0.2405  0.0257 -0.8273
14980SOL    HW246382   7.361   7.794   7.767  0.4974 -0.0693 -0.9796
14981SOL     OW46383   1.586   6.210   9.568 -0.1425 -0.1884 -0.3155
14981SOL    HW146384   1.606   6.240   9.657 -0.8189  1.1727 -0.5887
14981SOL    HW246385   1.667   6.168   9.538  0.5976  0.6706  0.4108
14982SOL     OW46386   1.395   6.461   6.026 -0.0965  0.5536  0.4350
14982SOL    HW146387   1.379   6.515   6.103 -0.6629 -0.9885  1.4314
14982SOL    HW246388   1.395   6.371   6.059 -0.8586 -0.1774 -1.4460
14983SOL     OW46389   5.054   3.525   7.852 -0.1865 -0.0068 -0.0570
14983SOL    HW146390   5.033   3.482   7.769 -1.8112 -0.1751  0.3904
14983SOL    HW246391   5.040   3.618   7.835  2.4153  0.3159 -0.7651
14984SOL     OW46392   7.062   5.473   0.482  0.2513 -0.2571 -0.5694
14984SOL    HW146393   7.006   5.478   0.560  0.8097  2.5849 -0.2168
14984SOL    HW246394   7.141   5.428   0.511 -0.7283 -1.9425 -0.3718
14985SOL     OW46395   5.705   0.390   8.600 -0.7124 -0.6947 -0.2049
14985SOL    HW146396   5.750   0.475   8.596 -0.2989 -0.8403  1.0288
14985SOL    HW246397   5.623   0.409   8.646 -0.7180 -0.9324 -0.1192
14986SOL     OW46398   4.870   6.553   5.958  0.0688 -0.4656  0.1666
14986SOL    HW146399   4.895   6.462   5.978 -0.1714 -0.0613  2.6499
14986SOL    HW246400   4.944   6.605   5.989 -0.3761  0.2701  0.0173
14987SOL     OW46401   5.717   1.233   9.949  0.2098 -0.0754 -0.0762
14987SOL    HW146402   5.759   1.292  10.012  0.9854 -0.8317  0.1235
14987SOL    HW246403   5.784   1.215   9.884 -0.2364 -0.2167 -0.5026
14988SOL     OW46404   1.367   2.014   5.775 -0.0663  0.3029  0.5312
14988SOL    HW146405   1.436   2.067   5.736 -1.1955  0.8865 -0.7509
14988SOL    HW246406   1.388   2.010   5.868  0.2092  2.7649  0.6153
14989SOL     OW46407   7.655   4.449  12.414 -0.2215  0.8377  0.0033
14989SOL    HW146408   7.742   4.462  12.451 -0.0239  0.4349 -0.3185
14989SOL    HW246409   7.597   4.500  12.471  0.1676  0.7731  0.4612
14990SOL     OW46410   7.280   2.750   5.179  0.1517 -0.3110 -0.6464
14990SOL    HW146411   7.332   2.714   5.251  0.6643  0.0828 -0.8165
14990SOL    HW246412   7.221   2.679   5.154  0.8525 -0.8913 -0.6879
14991SOL     OW46413   5.784   2.564   2.907  0.5750 -0.4176 -0.2927
14991SOL    HW146414   5.803   2.651   2.943  0.3420  0.0478 -1.2586
14991SOL    HW246415   5.690   2.567   2.886  0.0507 -1.6582  1.6567
14992SOL     OW46416   7.468   7.933   2.953  0.1975  0.0451 -0.1960
14992SOL    HW146417   7.432   8.021   2.957  0.2395  0.0124  1.0868
14992SOL    HW246418   7.395   7.875   2.976  0.5303 -0.1536  0.3840
14993SOL     OW46419   2.298   1.941   0.155 -0.6502 -0.2561 -0.2222
14993SOL    HW146420   2.346   1.858   0.158 -0.6064 -0.2927 -1.4875
14993SOL    HW246421   2.275   1.952   0.063 -0.9177  0.9945 -0.0201
14994SOL     OW46422   6.155   1.161   5.761 -0.0612  0.0111  0.1620
14994SOL    HW146423   6.211   1.088   5.789  0.2692  0.4370  0.6251
14994SOL    HW246424   6.203   1.202   5.690 -0.8455 -0.9975 -0.9976
14995SOL     OW46425   4.436   3.087   4.607 -0.5412  0.1204  0.2498
14995SOL    HW146426   4.375   3.049   4.545  0.9682  0.4288 -1.5290
14995SOL    HW246427   4.415   3.180   4.608 -0.1815  0.2088 -0.2733
14996SOL     OW46428   7.276   5.137   6.249 -0.1696 -0.6918  0.3247
14996SOL    HW146429   7.344   5.118   6.184 -1.5087 -0.9257 -1.0815
14996SOL    HW246430   7.304   5.218   6.291  0.8174 -0.6269 -0.4383
14997SOL     OW46431   7.735   7.272   3.692  0.2974  0.6483 -0.2602
14997SOL    HW146432   7.780   7.292   3.610 -0.9506 -0.4328 -1.2395
14997SOL    HW246433   7.779   7.194   3.725 -0.7269 -0.3691 -1.1847
14998SOL     OW46434   0.376   4.034   1.482 -0.1512 -0.3224  0.4248
14998SOL    HW146435   0.448   3.974   1.501  1.4198  1.8230  1.7962
14998SOL    HW246436   0.319   4.028   1.559  0.5828  0.6765  1.0666
14999SOL     OW46437   3.137   4.898   0.729 -0.0885 -0.2370 -0.2699
14999SOL    HW146438   3.104   4.821   0.775 -0.1153 -0.1302 -0.1079
14999SOL    HW246439   3.138   4.873   0.637  0.0946 -0.5032 -0.1968
15000SOL     OW46440   2.701   7.961  12.153 -0.1892 -0.9457  0.0145
15000SOL    HW146441   2.640   8.014  12.101 -0.1225 -0.5288  0.3629
15000SOL    HW246442   2.647   7.890  12.187 -1.1693  0.9313  2.6502
15001SOL     OW46443   2.232   3.938   3.050  0.4705  0.3968  0.2451
15001SOL    HW146444   2.318   3.965   3.018  0.9507  0.5708  1.6190
15001SOL    HW246445   2.195   4.018   3.088  0.4322 -0.0465  1.1803
15002SOL     OW46446   0.593   2.741   3.902 -0.0422 -0.5036  0.5752
15002SOL    HW146447   0.670   2.683   3.905  0.2260 -0.3683 -1.8701
15002SOL    HW246448   0.615   2.812   3.962  1.4933 -0.7781  0.3899
15003SOL     OW46449   7.853   0.090   7.672  1.1821 -0.9840 -0.3917
15003SOL    HW146450   7.928   0.150   7.671  0.0909  0.4603 -2.1433
15003SOL    HW246451   7.850   0.055   7.583  0.5158 -2.0156  0.0217
15004SOL     OW46452   1.632   0.317   3.048 -0.2606  0.1570  0.2663
15004SOL    HW146453   1.679   0.296   3.129  0.9104 -0.2389 -0.4934
15004SOL    HW246454   1.567   0.383   3.074 -0.1323 -0.2120  1.5809
15005SOL     OW46455   5.905   7.957   5.684  0.0671 -0.2713  0.1455
15005SOL    HW146456   5.819   7.941   5.722  0.0086 -2.8737 -0.8726
15005SOL    HW246457   5.959   7.986   5.758 -1.3722  0.2567  1.0333
15006SOL     OW46458   4.677   2.555   4.592 -0.2314  0.1913 -0.0863
15006SOL    HW146459   4.629   2.585   4.515 -0.7886  1.6441  0.7850
15006SOL    HW246460   4.668   2.459   4.590 -0.1274  0.1863 -1.8668
15007SOL     OW46461   1.460   1.492   1.723 -0.1812  0.5571 -0.4257
15007SOL    HW146462   1.383   1.436   1.712  0.2843  0.1478 -1.7137
15007SOL    HW246463   1.534   1.438   1.697  0.7062  0.6179  1.7083
15008SOL     OW46464   7.433   7.304  11.753 -0.5152  0.3427  0.2525
15008SOL    HW146465   7.360   7.354  11.718 -1.0485  0.7248  1.8165
15008SOL    HW246466   7.482   7.367  11.807 -0.1758 -0.3847  0.8177
15009SOL     OW46467   0.627   2.043   1.479  0.1687  0.0808  0.0659
15009SOL    HW146468   0.657   1.958   1.447  0.4088  0.9209 -2.1074
15009SOL    HW246469   0.532   2.040   1.471  0.2032  0.1449 -0.4211
15010SOL     OW46470   1.977   1.161  12.026  0.6830 -0.2084  0.5137
15010SOL    HW146471   1.965   1.066  12.020  0.9746 -0.3052  1.2753
15010SOL    HW246472   2.021   1.185  11.944 -0.7872 -0.4772 -0.3865
15011SOL     OW46473   0.691   7.145   8.388  0.1005 -0.0832  0.0919
15011SOL    HW146474   0.732   7.066   8.421 -1.8720 -1.2555 -0.1184
15011SOL    HW246475   0.612   7.156   8.441 -1.0958  0.1807 -1.6477
15012SOL     OW46476   5.329   2.655   8.891 -0.7863  0.0868 -0.3375
15012SOL    HW146477   5.263   2.635   8.825 -1.1180 -0.3852  0.1221
15012SOL    HW246478   5.356   2.569   8.924  0.0309  0.2731 -0.4848
15013SOL     OW46479   4.204   2.832   4.821  0.1745  0.3097  0.6023
15013SOL    HW146480   4.256   2.772   4.768  0.9432 -0.7137  2.4357
15013SOL    HW246481   4.263   2.862   4.889 -1.0710  0.7369  1.5407
15014SOL     OW46482   1.916   4.488   1.291  0.0015 -0.0017  0.3408
15014SOL    HW146483   2.009   4.484   1.314  0.3057  0.4702 -0.7437
15014SOL    HW246484   1.886   4.572   1.326  0.0027 -0.1092  0.6036
15015SOL     OW46485   4.302   3.295   0.817 -0.2388 -0.0316  0.4629
15015SOL    HW146486   4.257   3.258   0.741  0.5692  0.7428 -0.4227
15015SOL    HW246487   4.369   3.353   0.779 -0.0286  0.6142  1.7698
15016SOL     OW46488   6.402   6.402   4.635  0.5702  0.5439 -0.3374
15016SOL    HW146489   6.483   6.387   4.585  0.7626  1.1069 -0.2086
15016SOL    HW246490   6.333   6.371   4.577  0.6822  2.3021 -1.5319
15017SOL     OW46491   6.673   7.525   2.950  0.1123 -0.0231 -0.3405
15017SOL    HW146492   6.708   7.564   3.030  0.1335 -0.3524 -0.1861
15017SOL    HW246493   6.710   7.578   2.879  2.3353 -1.3914 -0.2995
15018SOL     OW46494   0.267   5.458   5.935 -0.1744 -0.0898  0.0749
15018SOL    HW146495   0.202   5.461   5.865  1.4318 -0.0179 -1.5200
15018SOL    HW246496   0.291   5.550   5.950  0.4071 -0.1831 -0.2284
15019SOL     OW46497   7.414   6.553   2.698  0.4533 -0.3958 -0.2121
15019SOL    HW146498   7.393   6.484   2.634 -2.8545 -0.7534  1.0650
15019SOL    HW246499   7.488   6.518   2.747  0.0055 -2.2627 -0.7802
15020SOL     OW46500   1.528   2.104  10.372 -0.0619  0.0693  0.2189
15020SOL    HW146501   1.551   2.041  10.305 -1.9818 -0.4319 -0.0481
15020SOL    HW246502   1.555   2.064  10.454 -0.4808 -0.7333 -0.0235
15021SOL     OW46503   7.667   7.569   8.355 -0.5191 -0.1337  0.5108
15021SOL    HW146504   7.588   7.620   8.335 -0.5742  0.4488  2.0765
15021SOL    HW246505   7.705   7.549   8.269 -0.8650  1.9704 -0.2055
15022SOL     OW46506   7.731   0.211  11.117 -0.1862 -0.3215  0.6714
15022SOL    HW146507   7.776   0.126  11.119 -0.0388 -0.2871  3.5872
15022SOL    HW246508   7.692   0.216  11.030  0.1199 -3.2052  0.2750
15023SOL     OW46509   0.764   4.702  11.906  0.0731  0.0489  0.3610
15023SOL    HW146510   0.811   4.776  11.869 -0.3571 -0.7364 -1.9592
15023SOL    HW246511   0.682   4.699  11.857  0.3749 -2.3450 -0.1003
15024SOL     OW46512   2.007   4.000  12.248  0.1679 -0.3685 -0.5125
15024SOL    HW146513   1.912   4.000  12.254  0.1162 -2.3146 -0.7725
15024SOL    HW246514   2.036   3.996  12.340  0.0638  1.2296 -0.3746
15025SOL     OW46515   5.306   5.839   4.448  0.3890  0.0438 -0.2941
15025SOL    HW146516   5.402   5.832   4.453  0.5643  1.4493 -1.1026
15025SOL    HW246517   5.274   5.758   4.488  1.8860  0.1653  1.2936
15026SOL     OW46518   0.461   2.742  12.226 -0.2381  0.3490  0.1626
15026SOL    HW146519   0.399   2.674  12.201  1.7149 -1.6628  0.5217
15026SOL    HW246520   0.539   2.723  12.175  1.5893  0.1116  2.8456
15027SOL     OW46521   5.562   3.364   5.579 -0.1372  0.2337 -0.0089
15027SOL    HW146522   5.594   3.444   5.623 -0.7378  0.2372  0.4419
15027SOL    HW246523   5.609   3.293   5.622 -0.3744  0.2739  0.3268
15028SOL     OW46524   3.869   7.690   2.300 -0.5231 -0.1539  0.3423
15028SOL    HW146525   3.880   7.783   2.280  0.5058 -0.4610 -0.6265
15028SOL    HW246526   3.943   7.669   2.357 -0.0302 -0.6502 -0.4663
15029SOL     OW46527   3.541   6.984   0.095  0.0604 -0.1188 -0.2597
15029SOL    HW146528   3.613   6.942   0.047  1.2467  1.6962 -0.1714
15029SOL    HW246529   3.556   6.961   0.187  0.0448 -0.4192 -0.3318
15030SOL     OW46530   1.907   2.170   8.451 -0.2808  0.6947 -0.2842
15030SOL    HW146531   1.945   2.130   8.373  1.1055 -0.0228  0.7157
15030SOL    HW246532   1.955   2.252   8.462 -2.3379  2.1785 -1.6793
15031SOL     OW46533   6.664   5.003   7.624 -0.1433 -0.0425  0.1143
15031SOL    HW146534   6.616   4.944   7.565 -0.7751 -0.9896  1.5299
15031SOL    HW246535   6.705   4.945   7.688  1.1782  0.9172  0.1732
15032SOL     OW46536   7.094   6.507   7.016  0.5944  0.3198 -0.0693
15032SOL    HW146537   7.012   6.458   7.006  0.3261  0.0935  2.4934
15032SOL    HW246538   7.162   6.441   7.006  0.2451 -0.6262  2.7905
15033SOL     OW46539   5.256   4.896   4.832 -0.0222 -0.2177  0.3358
15033SOL    HW146540   5.207   4.853   4.902  0.7191 -1.4643  0.1158
15033SOL    HW246541   5.344   4.857   4.836  0.7354  1.3815  0.2060
15034SOL     OW46542   2.332   4.050   9.285 -0.0218  0.2410  0.5201
15034SOL    HW146543   2.346   4.081   9.196 -0.1519 -0.2583  0.3233
15034SOL    HW246544   2.412   4.074   9.332  0.4670 -0.4035  0.0185
15035SOL     OW46545   3.700   0.773  12.075 -0.4246  0.0306  0.2655
15035SOL    HW146546   3.715   0.802  11.985 -1.4921  3.1598  0.9506
15035SOL    HW246547   3.605   0.784  12.088 -0.3172 -0.5550  1.6952
15036SOL     OW46548   1.244   5.711   3.386 -0.0048 -0.5460  0.0440
15036SOL    HW146549   1.282   5.663   3.459  0.5081 -0.0717  0.0991
15036SOL    HW246550   1.279   5.669   3.307 -0.4031 -0.9341  0.0743
15037SOL     OW46551   1.559   7.221   4.631 -0.3877  0.2783 -0.0612
15037SOL    HW146552   1.642   7.200   4.589 -0.6085  0.6112 -0.6574
15037SOL    HW246553   1.573   7.198   4.723  0.2135 -0.0930 -0.2404
15038SOL     OW46554   5.656   3.847  12.245 -0.3131 -0.0658 -0.2987
15038SOL    HW146555   5.661   3.773  12.184  0.2269 -0.2954  0.0150
15038SOL    HW246556   5.718   3.911  12.209  0.8264 -0.6399  0.5785
15039SOL     OW46557   1.744   3.459  10.357  0.0937  0.1897  0.4070
15039SOL    HW146558   1.763   3.553  10.357 -1.4621  0.5732 -1.7827
15039SOL    HW246559   1.829   3.418  10.337  0.1979  1.4082 -2.0696
15040SOL     OW46560   6.198   6.754  11.386  0.0166 -0.6979  0.0787
15040SOL    HW146561   6.181   6.827  11.445  1.1415 -0.0516 -0.3662
15040SOL    HW246562   6.120   6.750  11.331  0.0179  0.2915 -0.0180
15041SOL     OW46563   1.348   0.670   7.449 -0.0393 -0.3050 -0.0273
15041SOL    HW146564   1.362   0.578   7.426 -1.0630 -0.4934  0.0154
15041SOL    HW246565   1.257   0.673   7.479  0.3995  0.4634  1.3094
15042SOL     OW46566   1.321   3.941   7.468 -0.3346 -0.1194 -0.5233
15042SOL    HW146567   1.245   3.924   7.414 -0.2792  1.8766 -1.2930
15042SOL    HW246568   1.327   3.864   7.526 -2.9082 -0.2991 -0.4143
15043SOL     OW46569   4.133   2.948   6.045 -0.1649  0.4151 -0.1111
15043SOL    HW146570   4.207   3.008   6.045 -0.4234  0.7350 -0.7122
15043SOL    HW246571   4.149   2.889   5.971 -1.0660  1.1904 -0.9542
15044SOL     OW46572   6.403   7.115   6.818  0.2467  0.1482  0.4846
15044SOL    HW146573   6.355   7.129   6.736  0.9875 -0.5851 -0.0945
15044SOL    HW246574   6.347   7.057   6.869 -0.9892  1.9152  1.2248
15045SOL     OW46575   6.418   0.732   9.895 -0.6970 -0.2617 -0.1299
15045SOL    HW146576   6.420   0.674   9.971 -1.8585  0.4663  0.4940
15045SOL    HW246577   6.381   0.679   9.825  0.1802 -0.8735 -0.1524
15046SOL     OW46578   7.370   0.448   2.148  0.2676  0.7416 -0.3032
15046SOL    HW146579   7.365   0.475   2.239 -0.9912  0.0998 -0.1589
15046SOL    HW246580   7.372   0.530   2.098  1.3495  1.0969  0.2955
15047SOL     OW46581   3.989   4.435   3.317  0.3593 -0.2708 -0.0551
15047SOL    HW146582   3.964   4.498   3.249  0.7150  0.2643  0.3009
15047SOL    HW246583   4.036   4.488   3.381 -1.2696 -0.4611  1.3665
15048SOL     OW46584   2.856   0.446  12.166 -0.1006 -0.4788 -0.0191
15048SOL    HW146585   2.902   0.399  12.096 -0.7780 -1.2717  0.0611
15048SOL    HW246586   2.920   0.451  12.237  1.2964  2.0068 -1.2969
15049SOL     OW46587   2.239   2.219   1.253 -0.3051 -0.1906 -0.1692
15049SOL    HW146588   2.162   2.214   1.195 -0.7418 -2.2393  0.5047
15049SOL    HW246589   2.314   2.215   1.194 -0.6807  1.0184 -0.7767
15050SOL     OW46590   4.989   2.769   4.148 -0.5698  0.2909 -0.2335
15050SOL    HW146591   4.983   2.825   4.071  1.1904  0.4319 -0.3133
15050SOL    HW246592   5.078   2.735   4.146 -0.0638  1.2134  2.3607
15051SOL     OW46593   6.427   2.286  10.418  0.1537 -0.0661 -0.5516
15051SOL    HW146594   6.334   2.304  10.428  0.6127  2.8144 -0.7417
15051SOL    HW246595   6.440   2.203  10.464 -2.1080  0.5239  1.3495
15052SOL     OW46596   2.618   1.959   6.344 -0.0604  0.0759 -0.1626
15052SOL    HW146597   2.682   1.987   6.410 -1.0004  2.8871 -0.3002
15052SOL    HW246598   2.628   2.022   6.273 -1.6636 -0.5638 -1.0105
15053SOL     OW46599   3.243   5.774   0.585 -0.3849 -0.0126  0.4371
15053SOL    HW146600   3.322   5.727   0.612 -0.4731 -0.2371  0.3069
15053SOL    HW246601   3.213   5.728   0.506 -0.6201  0.0979  0.4602
15054SOL     OW46602   4.534   5.925  12.098 -0.2926  0.0661  0.2837
15054SOL    HW146603   4.499   5.943  12.186  2.6074 -0.2739  1.6058
15054SOL    HW246604   4.621   5.965  12.097  0.3231 -1.1249 -1.9634
15055SOL     OW46605   2.758   1.603   9.439 -0.2962  0.1655 -0.1812
15055SOL    HW146606   2.753   1.571   9.349 -0.0508 -0.8353  0.1491
15055SOL    HW246607   2.818   1.542   9.482  0.0783  1.0090  0.5017
15056SOL     OW46608   4.221   0.539  10.287  0.2531  0.0594  0.4306
15056SOL    HW146609   4.254   0.604  10.226 -0.6464 -0.9722 -1.2432
15056SOL    HW246610   4.196   0.465  10.232 -3.4583  0.1962  1.6503
15057SOL     OW46611   2.164   3.661   0.982 -0.1399  0.4039  0.3152
15057SOL    HW146612   2.108   3.736   0.999  0.9533  1.5819 -0.9493
15057SOL    HW246613   2.106   3.594   0.946 -0.9671  1.0235  0.4834
15058SOL     OW46614   3.283   5.158  10.107 -0.2958 -0.5161  0.4971
15058SOL    HW146615   3.195   5.164  10.146 -0.5469 -1.9094  0.1783
15058SOL    HW246616   3.339   5.129  10.179 -0.2900 -0.6314  0.4467
15059SOL     OW46617   7.968   1.959   3.521  0.6263  0.9126  0.5212
15059SOL    HW146618   8.055   1.948   3.561  1.0169  0.7658 -0.3543
15059SOL    HW246619   7.965   2.051   3.496  1.2540  0.5270 -1.0723
15060SOL     OW46620   3.156   6.870   6.925 -0.0544  0.6103  0.0976
15060SOL    HW146621   3.151   6.781   6.962 -0.6666  0.2639 -0.7924
15060SOL    HW246622   3.248   6.894   6.934 -0.3645  1.0730  3.0084
15061SOL     OW46623   1.291   6.277   6.772 -0.2577  0.3926  0.1653
15061SOL    HW146624   1.320   6.360   6.809  0.4337 -0.4269  1.5625
15061SOL    HW246625   1.362   6.215   6.793 -0.6371 -0.5057 -1.0587
15062SOL     OW46626   1.787   7.099   1.409 -0.2736 -0.7441  0.3878
15062SOL    HW146627   1.746   7.133   1.488 -1.5851  0.0597 -0.5887
15062SOL    HW246628   1.713   7.078   1.352  0.6579 -0.1087 -1.1016
15063SOL     OW46629   0.364   2.155  11.635 -0.3343 -0.2220 -0.3879
15063SOL    HW146630   0.344   2.091  11.567  0.9021 -0.0734 -0.9101
15063SOL    HW246631   0.279   2.189  11.662 -0.8855 -0.8636 -1.2863
15064SOL     OW46632   1.472   0.856  11.271 -0.2147 -0.9162  0.3914
15064SOL    HW146633   1.420   0.784  11.306  0.0482 -1.4861 -0.3477
15064SOL    HW246634   1.536   0.813  11.214 -0.1360 -0.0853 -0.1630
15065SOL     OW46635   0.820   2.427   6.166  0.4438 -0.3901  0.2844
15065SOL    HW146636   0.754   2.360   6.185  0.5253 -0.5411  0.0357
15065SOL    HW246637   0.815   2.439   6.071  0.2439  0.1501  0.3609
15066SOL     OW46638   4.965   2.062  10.743 -0.1684  0.4851 -0.1858
15066SOL    HW146639   4.908   2.036  10.671 -0.8986 -0.8358  0.8239
15066SOL    HW246640   4.943   2.154  10.759 -1.6655  0.1405 -0.1456
15067SOL     OW46641   4.901   7.927   2.058  1.3624 -0.2410 -0.1905
15067SOL    HW146642   4.954   7.849   2.045  0.0397 -0.9949 -1.3192
15067SOL    HW246643   4.899   7.969   1.972 -1.6137 -1.4230 -0.8214
15068SOL     OW46644   6.280   3.741   8.448 -0.5968 -0.6715 -0.2300
15068SOL    HW146645   6.353   3.725   8.508  0.5762  2.5107 -0.6337
15068SOL    HW246646   6.229   3.810   8.490 -0.3801  0.8432 -2.3303
15069SOL     OW46647   1.634   7.708   2.240 -0.2098 -0.6810  0.0146
15069SOL    HW146648   1.560   7.706   2.179 -0.6981 -0.0314  0.5685
15069SOL    HW246649   1.643   7.617   2.270 -0.1654 -0.9440 -0.7838
15070SOL     OW46650   4.678   1.331   7.104 -0.4624  0.0442  0.1467
15070SOL    HW146651   4.698   1.293   7.190 -0.4550 -1.2236 -0.3811
15070SOL    HW246652   4.727   1.413   7.101 -0.0341 -0.1634  1.1398
15071SOL     OW46653   0.093   0.371   3.235  0.1478 -0.5258 -0.2909
15071SOL    HW146654   0.016   0.345   3.185 -0.5068  0.5502  0.1223
15071SOL    HW246655   0.122   0.453   3.195 -2.1182  2.0012  2.6828
15072SOL     OW46656   6.586   2.819   3.469 -0.5025 -0.1568  0.3519
15072SOL    HW146657   6.595   2.855   3.558 -3.0484 -0.6505  0.8963
15072SOL    HW246658   6.565   2.727   3.482 -1.1482 -0.1837 -0.7353
15073SOL     OW46659   6.494   6.213   7.815 -0.3436  0.2391  0.0306
15073SOL    HW146660   6.461   6.294   7.776  0.4379  1.0189  0.9544
15073SOL    HW246661   6.416   6.174   7.856 -0.2618  1.9716  2.0344
15074SOL     OW46662   2.745   2.259   8.762 -0.0825 -0.1102  0.4583
15074SOL    HW146663   2.658   2.283   8.732  0.4474  0.2447 -0.8506
15074SOL    HW246664   2.778   2.199   8.695  0.8586  0.1411  0.6830
15075SOL     OW46665   0.223   4.892   3.553  0.5858 -0.7486 -0.1191
15075SOL    HW146666   0.172   4.864   3.478  0.3902 -1.3013  0.2183
15075SOL    HW246667   0.303   4.931   3.515  0.8278 -1.6861 -0.5882
15076SOL     OW46668   5.600   4.110  12.433  0.0049 -0.3388  0.4134
15076SOL    HW146669   5.625   4.057  12.357  0.8945 -0.0468  0.4863
15076SOL    HW246670   5.611   4.051  12.507 -0.3135 -0.4527  0.3718
15077SOL     OW46671   2.362   0.729   6.159 -0.4033  0.3359 -0.0080
15077SOL    HW146672   2.274   0.710   6.125 -0.6962 -1.8856  1.7398
15077SOL    HW246673   2.421   0.707   6.087 -1.1797 -0.2780 -0.4711
15078SOL     OW46674   1.912   6.364   9.831 -0.6777  0.2144 -0.1732
15078SOL    HW146675   2.002   6.364   9.864 -0.0028 -1.3677 -1.8693
15078SOL    HW246676   1.913   6.425   9.757 -1.7565  2.3498  1.4198
15079SOL     OW46677   1.878   6.936   7.551 -0.6033 -0.2825  0.3066
15079SOL    HW146678   1.786   6.952   7.573 -0.1864 -0.1133  2.1452
15079SOL    HW246679   1.906   6.869   7.614  0.5186 -0.3760 -0.2681
15080SOL     OW46680   5.481   5.165   4.084  0.1305 -0.2451  0.2829
15080SOL    HW146681   5.531   5.179   4.004  0.1336  1.0652  0.5021
15080SOL    HW246682   5.478   5.069   4.094 -0.8922 -0.5042 -1.9091
15081SOL     OW46683   5.370   0.166   9.970 -0.2722 -0.3220  0.1152
15081SOL    HW146684   5.356   0.091   9.911 -1.7235 -0.2221  0.3020
15081SOL    HW246685   5.412   0.232   9.915 -0.6398 -0.6207 -0.5351
15082SOL     OW46686   2.700   6.125   5.005 -0.4638 -0.3183 -0.6227
15082SOL    HW146687   2.677   6.049   5.057 -2.0999  0.1548 -0.6030
15082SOL    HW246688   2.769   6.094   4.946  1.5462 -0.8268  1.8513
15083SOL     OW46689   0.756   6.787   4.228  0.3571  0.5474 -0.3882
15083SOL    HW146690   0.778   6.712   4.284  0.0533 -0.2000 -1.2430
15083SOL    HW246691   0.744   6.749   4.142 -0.8393  1.4430 -0.6304
15084SOL     OW46692   2.801   3.413  10.280 -0.3130  0.0815 -0.3938
15084SOL    HW146693   2.768   3.429  10.191 -1.2498  4.5450  0.5434
15084SOL    HW246694   2.893   3.436  10.275 -0.5990  1.3905 -0.0649
15085SOL     OW46695   3.802   3.963   7.819  0.2615  1.0571 -0.4585
15085SOL    HW146696   3.725   3.979   7.765  1.1008  1.9719 -1.4174
15085SOL    HW246697   3.771   3.973   7.909 -1.1664 -0.5014 -0.7131
15086SOL     OW46698   0.321   4.055   0.587 -0.1259  0.2330 -0.4889
15086SOL    HW146699   0.325   3.983   0.650  3.2272  0.8944  0.2824
15086SOL    HW246700   0.411   4.089   0.584 -1.0139  2.7677 -2.7221
15087SOL     OW46701   5.400   0.216   7.104 -1.0559 -0.1930  0.5570
15087SOL    HW146702   5.357   0.201   7.020  0.2428  2.8535 -0.7940
15087SOL    HW246703   5.369   0.302   7.131  0.0011 -0.3173  2.2889
15088SOL     OW46704   1.442   2.385   0.363  0.0669  0.0350 -0.0451
15088SOL    HW146705   1.484   2.459   0.407  1.6062 -0.0210 -1.3244
15088SOL    HW246706   1.458   2.311   0.421 -0.3848  0.4590  0.6360
15089SOL     OW46707   6.428   0.335  11.387  0.1772 -0.4806 -0.0892
15089SOL    HW146708   6.485   0.406  11.356 -2.1972  0.6820 -2.2186
15089SOL    HW246709   6.455   0.258  11.337 -0.5082  0.2423 -1.6477
15090SOL     OW46710   5.478   7.037  12.398  0.6699  0.7012 -0.1996
15090SOL    HW146711   5.492   7.115  12.451  0.7661  0.7685 -0.3236
15090SOL    HW246712   5.499   7.064  12.309 -1.8140  1.2858 -0.6981
15091SOL     OW46713   5.180   1.845   6.154 -0.2122 -0.0805  0.7723
15091SOL    HW146714   5.269   1.813   6.169  0.2324  0.4199 -0.5979
15091SOL    HW246715   5.167   1.913   6.220  0.7550  0.4264  0.4643
15092SOL     OW46716   0.799   4.320   9.056  0.2050  0.4152 -0.0929
15092SOL    HW146717   0.723   4.376   9.073 -1.3238 -0.9325 -1.9226
15092SOL    HW246718   0.761   4.233   9.041  2.0742 -0.2409 -1.3598
15093SOL     OW46719   4.390   2.762   0.481 -0.0920 -0.0684 -0.9612
15093SOL    HW146720   4.439   2.692   0.523  0.7992  0.6173 -0.8227
15093SOL    HW246721   4.446   2.791   0.409 -0.3341  0.6597 -0.8656
15094SOL     OW46722   1.114   3.480  12.369  0.0440  0.3365 -0.1886
15094SOL    HW146723   1.033   3.493  12.320 -0.1301  0.3691  0.1077
15094SOL    HW246724   1.102   3.529  12.450  0.3277  0.2757 -0.1071
15095SOL     OW46725   7.587   5.479   5.382  0.1729  0.3173  0.6834
15095SOL    HW146726   7.525   5.406   5.378 -1.1300  1.3395  1.3031
15095SOL    HW246727   7.551   5.544   5.321  0.5614  0.9787  1.1459
15096SOL     OW46728   2.220   6.688   0.062 -0.7118 -0.2792  0.3049
15096SOL    HW146729   2.227   6.617  -0.002  0.3309 -0.1564  0.2741
15096SOL    HW246730   2.289   6.749   0.038 -0.6395  0.0159  1.2350
15097SOL     OW46731   7.124   4.004   6.510 -0.3293  0.0929  0.2467
15097SOL    HW146732   7.102   3.980   6.420 -0.7893 -1.3736  0.7181
15097SOL    HW246733   7.114   4.099   6.512  0.1116  0.2143 -1.3487
15098SOL     OW46734   2.787   1.245   3.741  0.3261  0.1922 -0.4340
15098SOL    HW146735   2.861   1.247   3.802 -0.1752  1.1964  0.1697
15098SOL    HW246736   2.813   1.181   3.675  0.9624 -0.7918  0.7178
15099SOL     OW46737   4.221   7.417  10.797  0.8476 -0.1926 -0.4126
15099SOL    HW146738   4.199   7.358  10.868  0.4078 -1.3028 -1.4296
15099SOL    HW246739   4.316   7.410  10.788  0.8950 -0.1072  0.0113
15100SOL     OW46740   4.476   0.140   1.666 -0.0768 -0.6450  0.6828
15100SOL    HW146741   4.433   0.224   1.684 -3.4707 -1.6592 -1.7071
15100SOL    HW246742   4.508   0.148   1.576 -1.2009 -2.1387  0.1158
15101SOL     OW46743   5.505   3.656   9.906 -0.0604 -0.4168  0.1054
15101SOL    HW146744   5.562   3.733   9.905 -0.7740  0.1340  0.2919
15101SOL    HW246745   5.517   3.616   9.821 -0.4079  0.4651 -0.3708
15102SOL     OW46746   0.971   5.034   2.992 -0.0487  0.2808  0.1825
15102SOL    HW146747   1.012   5.014   3.076  1.2705  2.0352  0.0138
15102SOL    HW246748   0.893   5.084   3.014 -1.5330 -2.0388  0.4541
15103SOL     OW46749   5.627   5.381   6.936  0.0058  0.3696  0.0506
15103SOL    HW146750   5.631   5.303   6.881 -1.3787 -0.0396  0.4859
15103SOL    HW246751   5.705   5.376   6.991  0.7208  0.1098 -0.9694
15104SOL     OW46752   6.755   6.572  11.243 -0.5518 -0.7084 -0.0066
15104SOL    HW146753   6.747   6.657  11.286 -0.2584 -1.1686  0.9974
15104SOL    HW246754   6.703   6.580  11.163  0.9999  1.0166 -0.9171
15105SOL     OW46755   5.727   2.605   1.796  0.1239  0.5298  0.3473
15105SOL    HW146756   5.813   2.607   1.837 -0.3568  1.5152  1.3751
15105SOL    HW246757   5.728   2.527   1.740  1.4675  0.2159  0.7800
15106SOL     OW46758   1.526   5.382   9.369 -0.8099  0.2277 -0.0120
15106SOL    HW146759   1.493   5.333   9.294 -0.3417 -0.9470  0.5376
15106SOL    HW246760   1.452   5.387   9.430 -1.1827  1.1613 -0.5132
15107SOL     OW46761   2.793   0.303   2.822 -0.5630  0.2343  0.0779
15107SOL    HW146762   2.740   0.301   2.901  0.8454  1.8634  1.1344
15107SOL    HW246763   2.796   0.396   2.798  0.8135  0.0367 -0.6207
15108SOL     OW46764   5.864   0.382   4.209  0.5826  0.1601  0.0904
15108SOL    HW146765   5.925   0.329   4.157 -1.9550 -0.8793 -2.1005
15108SOL    HW246766   5.842   0.326   4.284  1.8337  0.3280  0.6106
15109SOL     OW46767   6.057   4.862   7.578 -0.2736  0.0593 -0.0809
15109SOL    HW146768   6.152   4.872   7.581  0.1826 -2.6703  4.2503
15109SOL    HW246769   6.041   4.804   7.503  1.4146  0.6627 -0.9536
15110SOL     OW46770   6.529   6.601   6.358  0.5008  0.0410  0.0738
15110SOL    HW146771   6.504   6.655   6.433 -0.7329 -0.3422 -0.0356
15110SOL    HW246772   6.448   6.555   6.333  1.3840 -1.4570 -0.1717
15111SOL     OW46773   1.612   1.634   9.342 -0.3183  0.2281  0.2273
15111SOL    HW146774   1.568   1.716   9.362 -1.1399 -0.1010 -0.1762
15111SOL    HW246775   1.543   1.567   9.350 -0.1906 -0.1706 -1.5408
15112SOL     OW46776   5.523   7.744  11.730  0.3736  0.2269 -0.0013
15112SOL    HW146777   5.619   7.746  11.741  0.4015 -0.4095 -0.0991
15112SOL    HW246778   5.510   7.697  11.647  0.0624  2.5072 -1.3220
15113SOL     OW46779   4.268   1.365   1.213 -0.1534  0.2082  0.1613
15113SOL    HW146780   4.324   1.425   1.163  0.1359  0.2073  0.4773
15113SOL    HW246781   4.200   1.338   1.151  0.4656 -0.1548 -0.3745
15114SOL     OW46782   2.690   5.740   1.683 -0.0322  0.4136 -0.4916
15114SOL    HW146783   2.673   5.653   1.648 -2.4323  0.1294  1.1035
15114SOL    HW246784   2.662   5.800   1.614  1.8275 -0.0012 -1.6822
15115SOL     OW46785   3.736   7.303   0.819  0.1493  0.2229  0.6014
15115SOL    HW146786   3.701   7.360   0.751  1.6402 -1.4503 -1.7039
15115SOL    HW246787   3.790   7.361   0.874 -3.7562  2.3095  2.6542
15116SOL     OW46788   2.088   5.533   3.853 -0.0875 -0.2390 -0.1827
15116SOL    HW146789   2.045   5.477   3.788  1.2396  0.2662 -1.5287
15116SOL    HW246790   2.098   5.476   3.930 -0.1144 -1.3836 -1.0010
15117SOL     OW46791   5.752   7.344   2.267 -0.5146  0.0580 -0.6071
15117SOL    HW146792   5.791   7.285   2.332  1.0651  0.8540 -0.7669
15117SOL    HW246793   5.666   7.307   2.250  0.7102 -2.7393 -1.3497
15118SOL     OW46794   5.542   1.255  11.626 -0.2377  0.0945 -0.2692
15118SOL    HW146795   5.544   1.232  11.533  2.7380 -0.6406 -0.1222
15118SOL    HW246796   5.574   1.345  11.630  1.7350 -0.5638  0.1082
15119SOL     OW46797   0.522   7.255  11.026  0.1170 -0.2910 -0.2765
15119SOL    HW146798   0.503   7.233  11.117  0.1870  0.7595  0.0132
15119SOL    HW246799   0.468   7.332  11.008  1.9629  1.0659 -0.3064
15120SOL     OW46800   2.233   0.923   7.138  0.1798 -0.9101  0.2289
15120SOL    HW146801   2.185   0.888   7.063 -1.0630  1.6865 -0.2933
15120SOL    HW246802   2.183   0.893   7.215 -1.0252 -0.1158 -0.2136
15121SOL     OW46803   4.151   5.407  11.850  0.0025  0.6222  0.3377
15121SOL    HW146804   4.108   5.447  11.925  0.0368  1.5667 -0.1277
15121SOL    HW246805   4.104   5.325  11.836  0.1065  0.3438  1.4805
15122SOL     OW46806   0.456   3.714   0.304  0.4225 -0.0129 -0.0413
15122SOL    HW146807   0.472   3.805   0.330  0.4569  0.0994 -0.4470
15122SOL    HW246808   0.541   3.671   0.314  0.3803 -0.0240  0.2550
15123SOL     OW46809   4.319   0.696   5.038 -0.2248 -0.6157 -0.1090
15123SOL    HW146810   4.406   0.675   5.071 -0.2242 -1.6954 -0.7746
15123SOL    HW246811   4.335   0.751   4.961 -0.2352  3.0595  2.2352
15124SOL     OW46812   7.953   7.938   9.663  0.1924 -0.0638  0.3310
15124SOL    HW146813   7.892   7.886   9.611  1.0557 -1.1970  0.3983
15124SOL    HW246814   8.020   7.875   9.691 -0.2915  0.4580  2.9032
15125SOL     OW46815   0.357   4.959   0.728 -0.4180  0.0141  0.5724
15125SOL    HW146816   0.335   5.018   0.801 -0.0599 -0.7501  1.3159
15125SOL    HW246817   0.276   4.910   0.712 -0.4481  0.0668  0.5617
15126SOL     OW46818   2.477   7.424  11.125  0.2001 -0.1089  0.2866
15126SOL    HW146819   2.573   7.434  11.125  0.2606 -0.0450  2.7343
15126SOL    HW246820   2.463   7.330  11.113  0.5706 -0.1292 -0.0115
15127SOL     OW46821   6.146   4.802   5.295  0.0065  0.4062 -0.3249
15127SOL    HW146822   6.111   4.817   5.207  1.8724  2.0312 -0.8893
15127SOL    HW246823   6.182   4.714   5.292 -1.3821 -0.1713 -0.6446
15128SOL     OW46824   7.797   5.644  10.698  0.3921 -0.3940 -0.2854
15128SOL    HW146825   7.703   5.629  10.699 -0.0186  1.7832  1.0034
15128SOL    HW246826   7.817   5.666  10.607 -0.2485 -1.2698 -0.6502
15129SOL     OW46827   2.826   5.739   6.853 -0.5831 -0.2188  0.0932
15129SOL    HW146828   2.730   5.737   6.847 -0.6285  1.7011 -0.8128
15129SOL    HW246829   2.845   5.825   6.892  0.7606 -1.0868  1.4503
15130SOL     OW46830   1.055   1.422   0.392  0.0324  0.2236  0.2048
15130SOL    HW146831   1.092   1.450   0.308  1.5655 -0.0575  0.7560
15130SOL    HW246832   0.974   1.472   0.400 -1.0632 -0.9617 -2.2067
15131SOL     OW46833   2.370   4.881   4.829 -0.2835  0.8412  0.1256
15131SOL    HW146834   2.427   4.924   4.765  1.1138 -0.8869  0.1346
15131SOL    HW246835   2.282   4.896   4.796  0.4046 -0.5585 -2.6347
15132SOL     OW46836   6.131   5.414   7.638  0.4716 -0.4525  0.3183
15132SOL    HW146837   6.036   5.420   7.626  0.6153  1.0069 -0.3486
15132SOL    HW246838   6.144   5.431   7.731  0.1276  0.2667  0.2414
15133SOL     OW46839   1.081   7.811   2.678 -0.6509  0.0193 -0.0141
15133SOL    HW146840   1.150   7.876   2.690  1.4346 -2.0813  0.0560
15133SOL    HW246841   1.050   7.792   2.767 -2.3332  1.8789 -0.1266
15134SOL     OW46842   2.708   2.528   7.445 -0.5845  0.1310 -0.2971
15134SOL    HW146843   2.646   2.472   7.397 -0.3360 -0.7250  0.3507
15134SOL    HW246844   2.750   2.581   7.377  0.4433 -1.7107 -1.1773
15135SOL     OW46845   2.939   5.435   9.836  0.0567  0.0164  0.1877
15135SOL    HW146846   2.850   5.407   9.857  0.2215  0.7078  1.9489
15135SOL    HW246847   2.928   5.495   9.762 -0.9455  0.1052  0.3902
15136SOL     OW46848   2.226   4.341   6.166  0.1817  0.5802  0.4535
15136SOL    HW146849   2.139   4.354   6.202 -0.3362  0.8295 -0.8446
15136SOL    HW246850   2.217   4.268   6.105  0.8570  0.6648  0.2366
15137SOL     OW46851   7.585   2.463   2.333 -0.3338  0.2651 -0.4276
15137SOL    HW146852   7.633   2.500   2.258  0.5272 -1.2110 -0.6394
15137SOL    HW246853   7.652   2.416   2.383 -1.4416 -1.3677 -0.4168
15138SOL     OW46854   2.662   0.287   3.074  0.3908 -0.2894 -0.7691
15138SOL    HW146855   2.587   0.337   3.042 -0.1346 -1.0018 -0.6670
15138SOL    HW246856   2.721   0.353   3.110 -1.4424  0.0908  1.7939
15139SOL     OW46857   0.377   5.717   4.853  0.3271  0.0448  0.5504
15139SOL    HW146858   0.393   5.787   4.917  0.9167  0.5478 -0.1270
15139SOL    HW246859   0.464   5.684   4.832  0.1996  0.2819 -0.4118
15140SOL     OW46860   3.990   4.181  11.277 -0.2006  0.0347  0.2856
15140SOL    HW146861   3.938   4.220  11.347 -0.6798 -0.4159  0.1886
15140SOL    HW246862   4.029   4.256  11.232 -2.9475  0.6237 -1.3705
15141SOL     OW46863   2.919   2.541   6.114 -0.9946 -0.3237  0.4236
15141SOL    HW146864   2.937   2.508   6.027 -0.6350  2.2009 -0.5508
15141SOL    HW246865   3.005   2.560   6.151 -1.1176 -1.7939  1.5499
15142SOL     OW46866   5.763   2.110   9.192 -0.6547  0.1000 -0.1608
15142SOL    HW146867   5.686   2.062   9.222  0.5010 -1.1546  0.8908
15142SOL    HW246868   5.836   2.049   9.203  0.8080  1.9213  0.7696
15143SOL     OW46869   5.708   3.654   8.234 -0.2666  0.3615 -1.1667
15143SOL    HW146870   5.749   3.721   8.288  1.0751 -0.3169 -1.2921
15143SOL    HW246871   5.633   3.697   8.193 -1.5633  0.8170  1.4753
15144SOL     OW46872   6.847   2.542   4.345 -0.7183  0.2247  0.1272
15144SOL    HW146873   6.799   2.566   4.425 -1.2119  1.8732 -0.6337
15144SOL    HW246874   6.939   2.552   4.369 -0.8716  1.0851  0.3912
15145SOL     OW46875   6.079   6.306   9.119 -0.0233  0.9177  0.5361
15145SOL    HW146876   6.153   6.352   9.158 -0.1644  0.9472  0.7660
15145SOL    HW246877   6.108   6.288   9.029 -0.0321  1.5998  0.3910
15146SOL     OW46878   4.410   1.251   0.729 -0.1089  0.1649 -0.0065
15146SOL    HW146879   4.392   1.343   0.746 -1.0713 -0.2044  1.1233
15146SOL    HW246880   4.483   1.230   0.788 -0.0896  0.1239 -0.0451
15147SOL     OW46881   4.263   5.442   9.518 -0.5516  0.8061  0.7164
15147SOL    HW146882   4.220   5.357   9.513 -2.4877  1.8162 -0.8345
15147SOL    HW246883   4.292   5.448   9.609 -0.4678 -1.4306  0.9020
15148SOL     OW46884   2.871   4.228  11.722 -0.2303 -0.1106 -0.3244
15148SOL    HW146885   2.836   4.250  11.636 -0.2371  0.5027 -0.1693
15148SOL    HW246886   2.794   4.206  11.774 -0.1721 -1.1975 -0.6638
15149SOL     OW46887   1.379   7.486  10.990  0.2557 -0.0149 -0.2379
15149SOL    HW146888   1.299   7.470  11.040  0.7486 -1.6013  0.0997
15149SOL    HW246889   1.366   7.438  10.908  0.5363  0.4308 -0.5530
15150SOL     OW46890   6.755   5.266   7.815 -0.1697  0.7925 -0.2025
15150SOL    HW146891   6.688   5.259   7.884  0.2232  0.8529  0.1881
15150SOL    HW246892   6.802   5.183   7.818  0.0734  0.9317 -0.1664
15151SOL     OW46893   6.386   5.839  11.585  0.4686  0.0676 -0.4759
15151SOL    HW146894   6.324   5.861  11.516 -0.6274  0.4194  0.5928
15151SOL    HW246895   6.470   5.875  11.554 -0.2204  1.1588 -1.1314
15152SOL     OW46896   5.968   2.235   7.403  0.2758  0.2034 -0.1409
15152SOL    HW146897   5.983   2.142   7.384 -1.7752 -0.0919 -0.4786
15152SOL    HW246898   6.032   2.281   7.348  0.8477 -0.9731 -0.4998
15153SOL     OW46899   4.034   0.111   4.441 -0.2078 -0.4654  0.4316
15153SOL    HW146900   4.035   0.133   4.347 -0.5776  1.0773  0.7662
15153SOL    HW246901   3.961   0.162   4.476  1.3160  0.7455  1.9743
15154SOL     OW46902   2.696   0.899  11.529  0.2712  0.3443 -0.1183
15154SOL    HW146903   2.676   0.832  11.595  0.0851  1.6159  1.1827
15154SOL    HW246904   2.646   0.872  11.452  0.8210 -1.4221  0.0897
15155SOL     OW46905   4.485   7.111  10.029  0.3815 -0.4159  1.0054
15155SOL    HW146906   4.524   7.195  10.004  1.3302 -0.9510  0.6412
15155SOL    HW246907   4.547   7.045   9.996  1.0127 -1.2075  3.5363
15156SOL     OW46908   1.744   6.251   2.163 -0.7726 -0.3384  0.1833
15156SOL    HW146909   1.833   6.253   2.128 -0.5813  2.2666  0.6089
15156SOL    HW246910   1.753   6.206   2.247  0.0609 -0.4988  0.0229
15157SOL     OW46911   1.288   7.687  11.769  0.6407  0.2824 -0.6844
15157SOL    HW146912   1.250   7.638  11.842 -0.2700  0.2759 -1.1566
15157SOL    HW246913   1.306   7.621  11.702 -1.1145  0.6412 -1.5443
15158SOL     OW46914   4.709   2.567   9.973 -0.6310 -0.3367 -0.2070
15158SOL    HW146915   4.752   2.633   9.918  0.0087 -0.5441  0.0353
15158SOL    HW246916   4.755   2.573  10.057 -0.1614 -1.4987 -0.3705
15159SOL     OW46917   5.634   5.096   5.661 -0.1871 -0.1959  0.0191
15159SOL    HW146918   5.632   5.055   5.748 -2.0655 -2.2084 -0.8723
15159SOL    HW246919   5.566   5.163   5.664 -0.4930 -0.5044  0.0025
15160SOL     OW46920   4.685   4.384  11.467 -0.1207 -0.0679  0.6031
15160SOL    HW146921   4.707   4.383  11.560  0.4450  0.1375  0.4708
15160SOL    HW246922   4.656   4.473  11.450 -1.1063 -0.3378  0.7791
15161SOL     OW46923   6.180   0.927   4.978  0.6352  0.4478 -0.2853
15161SOL    HW146924   6.238   0.999   4.950  1.0682  0.5586  0.8399
15161SOL    HW246925   6.175   0.937   5.073 -0.8129  0.1079 -0.3146
15162SOL     OW46926   7.576   5.659   7.270 -0.6781 -0.6147 -0.4764
15162SOL    HW146927   7.618   5.689   7.351 -0.6363 -0.4460 -0.5597
15162SOL    HW246928   7.554   5.740   7.223 -0.4399 -0.7140 -0.7673
15163SOL     OW46929   5.974   4.326   9.474  0.6400 -0.0168  0.2087
15163SOL    HW146930   5.923   4.336   9.554  1.1132 -0.9078  0.6380
15163SOL    HW246931   6.058   4.289   9.504  0.9270 -0.0925 -0.6663
15164SOL     OW46932   0.214   3.326   4.887  0.4189 -0.3345 -0.6335
15164SOL    HW146933   0.299   3.352   4.920 -0.1858 -0.6268  1.2879
15164SOL    HW246934   0.151   3.362   4.950 -0.8417 -0.5834 -1.6989
15165SOL     OW46935   4.864   3.256  10.182 -0.2858  0.0471 -0.4576
15165SOL    HW146936   4.831   3.174  10.146 -0.2398 -0.1174 -0.1278
15165SOL    HW246937   4.903   3.301  10.107 -0.9679  0.1019 -0.7843
15166SOL     OW46938   1.211   2.512   8.728  0.2195 -0.3867  0.0350
15166SOL    HW146939   1.229   2.584   8.789 -1.1492 -0.8194  0.9984
15166SOL    HW246940   1.267   2.530   8.652  0.7105  1.0858  0.7138
15167SOL     OW46941   0.288   3.643   9.889  0.1046  0.0725  0.4214
15167SOL    HW146942   0.246   3.728   9.892  0.3605  0.2082  0.1885
15167SOL    HW246943   0.225   3.583   9.930 -1.2703 -0.1400 -1.8190
15168SOL     OW46944   1.006   7.924   3.175  0.0949  0.1449 -0.2324
15168SOL    HW146945   0.920   7.910   3.215  0.3749 -0.7349  0.0780
15168SOL    HW246946   0.987   7.942   3.083 -0.3431 -1.8897 -0.5833
15169SOL     OW46947   4.348   1.330   6.118 -0.3344  0.3705  0.1537
15169SOL    HW146948   4.361   1.274   6.041 -0.4580  0.7725 -0.1640
15169SOL    HW246949   4.253   1.332   6.131 -0.2439 -1.1806  1.4412
15170SOL     OW46950   1.585   2.205  11.317 -0.4775 -0.8013  0.0873
15170SOL    HW146951   1.513   2.243  11.267 -0.6352 -1.0645  0.1121
15170SOL    HW246952   1.602   2.269  11.386 -1.3131 -1.1538  0.6436
15171SOL     OW46953   4.334   6.517   3.273  0.6690  0.1916 -0.2715
15171SOL    HW146954   4.262   6.555   3.223  1.9437 -0.3597 -2.6995
15171SOL    HW246955   4.332   6.424   3.249  1.5404 -0.0267  0.4740
15172SOL     OW46956   1.940   5.053  10.083 -0.4916 -0.2318  0.7204
15172SOL    HW146957   1.861   5.020  10.041 -1.4372  1.1467  1.3709
15172SOL    HW246958   1.940   5.011  10.169 -0.3963 -0.3774  0.6507
15173SOL     OW46959   2.530   7.565   0.846  0.2298  0.2105  0.3294
15173SOL    HW146960   2.624   7.568   0.828  0.0352 -1.2526 -1.1551
15173SOL    HW246961   2.524   7.575   0.941  2.0681 -1.8038  0.7451
15174SOL     OW46962   3.037   6.219   0.124 -0.1440 -0.3982 -0.2002
15174SOL    HW146963   2.996   6.134   0.138 -0.9014 -0.1717 -0.9573
15174SOL    HW246964   3.125   6.199   0.091 -0.7253 -0.9157 -1.5239
15175SOL     OW46965   5.517   5.362   1.304  0.3735 -0.9728  0.1836
15175SOL    HW146966   5.564   5.425   1.250  1.9662 -3.1314 -1.0837
15175SOL    HW246967   5.432   5.351   1.261 -0.0565  0.4845  0.6074
15176SOL     OW46968   5.621   5.460   9.263  0.3188  0.4746  0.0501
15176SOL    HW146969   5.544   5.456   9.319 -0.7602 -1.0976 -1.4671
15176SOL    HW246970   5.692   5.423   9.317 -0.8847 -1.8671  0.1380
15177SOL     OW46971   1.993   4.852   4.149  0.4023  0.3982  0.1513
15177SOL    HW146972   2.070   4.854   4.206 -0.2725  0.6162  1.0868
15177SOL    HW246973   2.029   4.852   4.060  1.4760  0.6060  0.5639
15178SOL     OW46974   3.282   1.802  11.433 -0.5479  0.8526  0.2709
15178SOL    HW146975   3.298   1.834  11.345  0.5177  0.6759  0.3805
15178SOL    HW246976   3.194   1.831  11.454 -0.9348  0.6160 -0.9697
15179SOL     OW46977   2.258   6.153   1.520 -0.1695  0.3621 -0.3457
15179SOL    HW146978   2.208   6.199   1.588  0.9729  0.5151  0.4099
15179SOL    HW246979   2.209   6.170   1.440 -0.6245  1.6072  0.1635
15180SOL     OW46980   1.705   7.245   7.180  0.1736 -0.7313  0.1623
15180SOL    HW146981   1.786   7.232   7.132 -0.3132  0.0903 -0.9143
15180SOL    HW246982   1.665   7.157   7.184 -0.3201 -0.6453 -1.9683
15181SOL     OW46983   2.473   1.763   8.470  0.3911  0.6966 -0.3785
15181SOL    HW146984   2.504   1.785   8.382 -0.1273  1.5541 -0.3553
15181SOL    HW246985   2.520   1.823   8.527 -0.6417  1.4129 -0.2583
15182SOL     OW46986   4.054   2.288  11.016 -0.5191 -0.7580 -0.3546
15182SOL    HW146987   4.073   2.380  10.998 -0.7539 -1.2435 -3.7426
15182SOL    HW246988   4.140   2.245  11.016 -0.5346 -0.7885 -0.5299
15183SOL     OW46989   7.037   3.252   1.852  0.0629 -0.0337  0.2841
15183SOL    HW146990   7.023   3.336   1.896  0.6872 -0.0204  0.4683
15183SOL    HW246991   7.026   3.271   1.759 -1.7944 -0.1655  0.4388
15184SOL     OW46992   4.959   7.016   7.265  0.2668 -0.6511  0.6448
15184SOL    HW146993   4.973   6.979   7.352 -1.6273  0.9502  1.7086
15184SOL    HW246994   4.910   6.948   7.218  0.5786 -1.1920  1.0915
15185SOL     OW46995   0.009   7.560   6.096 -0.5397 -0.0145 -0.1062
15185SOL    HW146996  -0.048   7.622   6.050  1.8040  2.7041  0.3031
15185SOL    HW246997   0.075   7.616   6.138  0.7741 -2.7562  1.7532
15186SOL     OW46998   7.977   3.252  10.105  0.5530 -0.5288  0.2087
15186SOL    HW146999   7.970   3.198  10.026 -1.1310 -0.9591  0.6240
15186SOL    HW247000   7.978   3.190  10.177 -0.9009 -0.0459  0.6651
15187SOL     OW47001   0.508   0.962   9.222 -0.4317 -0.0407 -0.1425
15187SOL    HW147002   0.469   1.049   9.230 -0.9116  0.0180 -2.3616
15187SOL    HW247003   0.598   0.979   9.193  0.0094 -0.2758  1.0337
15188SOL     OW47004   3.745   6.618  11.627 -0.5790  0.3033 -0.2144
15188SOL    HW147005   3.680   6.675  11.587 -0.3843  0.4995 -0.2512
15188SOL    HW247006   3.706   6.530  11.622 -1.4332  0.5883  0.9872
15189SOL     OW47007   7.315   3.533   1.138  0.2648  1.1746  0.1512
15189SOL    HW147008   7.278   3.621   1.127 -0.1173  1.0697  0.5751
15189SOL    HW247009   7.361   3.516   1.056 -1.6564  0.8144 -0.9169
15190SOL     OW47010   4.573   5.144   8.689  0.3036  0.5090 -0.0272
15190SOL    HW147011   4.616   5.112   8.610 -0.1634  1.9542 -0.9000
15190SOL    HW247012   4.492   5.093   8.695  0.7267 -0.1661 -0.0298
15191SOL     OW47013   5.959   7.021   5.869  0.2813 -0.2916 -0.1720
15191SOL    HW147014   5.873   6.980   5.876  0.0397  0.0320 -1.0487
15191SOL    HW247015   5.968   7.040   5.775  1.1709 -0.0370 -0.0378
15192SOL     OW47016   1.109   5.181   0.550  0.0428 -0.4204  0.0450
15192SOL    HW147017   1.018   5.179   0.577  0.2385 -2.0047  0.6989
15192SOL    HW247018   1.107   5.210   0.459 -0.9794  0.9000  0.4683
15193SOL     OW47019   3.440   0.979   2.253  0.0249  0.0673 -0.1936
15193SOL    HW147020   3.390   0.902   2.226  0.7388  0.3912 -2.7601
15193SOL    HW247021   3.424   0.986   2.347 -0.7590 -2.6722 -0.0215
15194SOL     OW47022   3.631   3.748   1.534 -0.0325 -0.3098 -0.7128
15194SOL    HW147023   3.700   3.746   1.468 -1.1297 -0.2065 -1.9086
15194SOL    HW247024   3.562   3.802   1.494 -0.6846 -0.1745  0.5578
15195SOL     OW47025   7.234   7.564   3.141  0.1796  0.1076 -1.2206
15195SOL    HW147026   7.216   7.650   3.104  1.8332  0.5266 -1.1486
15195SOL    HW247027   7.282   7.581   3.222 -2.0761 -0.8444  0.4182
15196SOL     OW47028   6.871   0.716   3.597 -0.4333 -0.5079 -0.0393
15196SOL    HW147029   6.797   0.669   3.636 -2.2484  1.2902 -1.0790
15196SOL    HW247030   6.863   0.700   3.503 -0.4129  0.8763 -0.3031
15197SOL     OW47031   6.491   4.324  12.379  0.5046 -0.2204  0.1478
15197SOL    HW147032   6.482   4.324  12.284 -0.4634 -0.2917  0.2346
15197SOL    HW247033   6.494   4.232  12.403  0.1813 -0.2090  0.2352
15198SOL     OW47034   1.986   0.048   1.491 -0.4259  0.0189 -0.4520
15198SOL    HW147035   2.000   0.009   1.405  0.5547 -3.3314  1.0817
15198SOL    HW247036   2.073   0.081   1.517 -1.0655  2.6592 -1.3597
15199SOL     OW47037   2.512   0.493   6.541 -0.3141  0.3217 -0.4580
15199SOL    HW147038   2.544   0.463   6.456 -0.1114 -0.9543  0.0358
15199SOL    HW247039   2.417   0.480   6.537 -0.3550  0.6912 -0.6529
15200SOL     OW47040   5.977   3.270   4.031  0.5165 -0.2086 -0.3393
15200SOL    HW147041   5.966   3.336   3.963 -1.5485  0.3862  0.5017
15200SOL    HW247042   6.002   3.320   4.109 -0.6684 -0.4478  0.2058
15201SOL     OW47043   7.163   0.782   2.137 -0.3307 -0.2282 -0.1134
15201SOL    HW147044   7.131   0.735   2.214  1.7539  1.0651  1.6673
15201SOL    HW247045   7.098   0.849   2.120 -0.1959  0.3151  1.3925
15202SOL     OW47046   6.239   2.456   3.906  0.5426  0.1246 -0.1593
15202SOL    HW147047   6.264   2.537   3.951  0.3850  0.3822 -0.5371
15202SOL    HW247048   6.143   2.460   3.901  0.5757  0.2366 -0.7750
15203SOL     OW47049   0.807   4.894   5.630  0.2354 -0.3260  0.7929
15203SOL    HW147050   0.848   4.829   5.688 -0.8069  0.4684  2.4954
15203SOL    HW247051   0.836   4.869   5.542  0.1788 -2.8750  1.4147
15204SOL     OW47052   0.325   2.558   2.632 -0.0647 -0.2529 -0.3621
15204SOL    HW147053   0.243   2.509   2.623 -0.1378 -0.4703  1.2725
15204SOL    HW247054   0.391   2.491   2.650  0.2733  0.0426 -0.4853
15205SOL     OW47055   6.457   4.683  11.094 -0.0897  0.2998  0.0971
15205SOL    HW147056   6.549   4.673  11.117 -0.5199  0.5163  2.0920
15205SOL    HW247057   6.436   4.773  11.118 -0.7634  0.3286 -0.5781
15206SOL     OW47058   1.595   1.712   8.457  0.0078 -0.0314  0.1163
15206SOL    HW147059   1.677   1.669   8.433 -0.7308 -0.4568 -1.8342
15206SOL    HW247060   1.621   1.802   8.477  0.9753 -0.1915 -0.3443
15207SOL     OW47061   4.732   7.451   7.231 -0.1335 -0.0545 -0.1076
15207SOL    HW147062   4.779   7.531   7.255  2.7349 -1.4308 -0.6979
15207SOL    HW247063   4.707   7.465   7.140 -0.7035  0.6265  0.1478
15208SOL     OW47064   4.587   5.437   4.886 -0.1369  0.2608 -1.1796
15208SOL    HW147065   4.680   5.423   4.870 -0.0533  0.5795 -0.9931
15208SOL    HW247066   4.542   5.373   4.830  0.1841  0.3019 -1.4840
15209SOL     OW47067   6.750   3.026   1.056  0.3715 -0.0710 -0.8724
15209SOL    HW147068   6.725   3.046   1.146  0.0919  0.2022 -1.0061
15209SOL    HW247069   6.698   3.087   1.003 -1.7590 -2.1900 -1.4113
15210SOL     OW47070   1.051   4.762   1.981 -0.2207 -0.6769 -0.3024
15210SOL    HW147071   0.962   4.726   1.981 -0.2153 -0.7083  0.6418
15210SOL    HW247072   1.088   4.732   1.898 -1.2656 -0.2147 -0.9662
15211SOL     OW47073   2.435   1.168   1.183  0.4737  0.2752  0.2826
15211SOL    HW147074   2.505   1.131   1.130 -0.7614 -1.9575  0.1048
15211SOL    HW247075   2.406   1.097   1.240 -0.2939  1.7336  1.8332
15212SOL     OW47076   5.207   5.538  11.639 -0.4904  0.0439 -0.3388
15212SOL    HW147077   5.233   5.571  11.725 -0.1773  0.3146 -0.5304
15212SOL    HW247078   5.236   5.606  11.578  1.2031 -1.0894 -0.8686
15213SOL     OW47079   5.655   0.702  11.899 -0.2857  0.2660  0.5130
15213SOL    HW147080   5.723   0.705  11.833 -1.1560  0.3134 -0.4108
15213SOL    HW247081   5.601   0.626  11.875 -0.3896  0.0443  1.3969
15214SOL     OW47082   1.103   3.393   1.968  0.2506 -0.1219  0.0737
15214SOL    HW147083   1.177   3.412   2.025  0.8789 -0.1888 -0.7178
15214SOL    HW247084   1.034   3.363   2.029  0.9712 -0.3889  0.7763
15215SOL     OW47085   4.140   4.625  11.604 -0.1727  0.0633 -0.3691
15215SOL    HW147086   4.163   4.690  11.537 -0.3650  1.4002  0.8006
15215SOL    HW247087   4.044   4.622  11.602 -0.1521 -2.0246 -2.0410
15216SOL     OW47088   5.334   7.032   7.047 -0.0333 -0.3336 -0.1288
15216SOL    HW147089   5.254   7.077   7.019 -1.2881 -1.9315  0.7426
15216SOL    HW247090   5.392   7.038   6.971  0.1907  3.2966  0.1356
15217SOL     OW47091   3.592   7.918   7.033 -0.4345 -0.4426  0.2842
15217SOL    HW147092   3.574   7.979   6.962 -1.9473 -0.0742  0.9305
15217SOL    HW247093   3.650   7.852   6.995 -1.1238 -0.1966 -1.2510
15218SOL     OW47094   2.067   1.788   5.742 -0.0972  0.3755  0.0827
15218SOL    HW147095   1.986   1.823   5.703 -0.1804  0.8687  0.6762
15218SOL    HW247096   2.067   1.823   5.831  1.8479  2.2038 -0.5581
15219SOL     OW47097   4.518   2.652  10.585 -0.4992 -0.3061  0.8795
15219SOL    HW147098   4.479   2.736  10.557 -0.0382 -0.6243 -0.8533
15219SOL    HW247099   4.465   2.586  10.540  0.5759 -0.8351  0.3754
15220SOL     OW47100   6.843   2.812   8.338 -0.1567 -0.2069 -0.2902
15220SOL    HW147101   6.821   2.721   8.359  0.2988 -0.4181 -0.7276
15220SOL    HW247102   6.869   2.810   8.246  1.0849  0.1467  0.0392
15221SOL     OW47103   4.057   4.823   6.241 -0.0932 -0.1470  0.1192
15221SOL    HW147104   4.099   4.740   6.220 -0.9630 -0.5830  0.0602
15221SOL    HW247105   3.964   4.809   6.222 -0.0787  1.2696 -1.2177
15222SOL     OW47106   1.688   3.399   3.109  0.4873 -0.2865 -0.0019
15222SOL    HW147107   1.710   3.479   3.061  0.5131 -0.1331  0.2673
15222SOL    HW247108   1.639   3.428   3.185 -0.5569 -0.6224 -0.5283
15223SOL     OW47109   0.958   2.469   4.633  0.0442 -0.2853 -0.1585
15223SOL    HW147110   0.958   2.373   4.627  0.5367 -0.3135  0.2397
15223SOL    HW247111   0.920   2.488   4.718 -0.5067 -0.1030 -0.4365
15224SOL     OW47112   4.061   4.165   9.544  0.4141  0.3313  0.8818
15224SOL    HW147113   4.093   4.087   9.498  2.3567  0.9795  1.0276
15224SOL    HW247114   4.006   4.131   9.614  0.4643 -0.8620  0.3655
15225SOL     OW47115   7.024   5.079   5.262 -0.7281  0.5594  0.7279
15225SOL    HW147116   6.948   5.131   5.290 -1.3458 -0.1293  0.3670
15225SOL    HW247117   7.088   5.144   5.234 -0.5418  1.2339  2.5682
15226SOL     OW47118   3.813   6.770   9.208  0.0548 -0.4316 -0.8228
15226SOL    HW147119   3.735   6.736   9.251 -1.1363  1.8723 -1.0156
15226SOL    HW247120   3.780   6.813   9.129  1.3927  1.2447 -0.5255
15227SOL     OW47121   5.342   0.470   4.505 -0.4715  0.1719 -0.3192
15227SOL    HW147122   5.436   0.454   4.515 -0.5247  0.0398 -0.0268
15227SOL    HW247123   5.336   0.532   4.432 -0.2393 -0.7581 -1.1553
15228SOL     OW47124   5.777   5.379   4.494  0.5070 -0.1819 -0.9079
15228SOL    HW147125   5.752   5.407   4.582  0.8076 -2.4178 -0.0366
15228SOL    HW247126   5.695   5.367   4.448  0.3380  0.7711 -0.8751
15229SOL     OW47127   1.936   2.373   4.339 -0.3379  1.0485  0.3926
15229SOL    HW147128   1.956   2.348   4.248  0.8533  1.5108  0.4983
15229SOL    HW247129   1.872   2.309   4.369  1.7552 -1.2425  0.3021
15230SOL     OW47130   0.035   1.126  10.544 -0.5155 -0.4776  0.1619
15230SOL    HW147131   0.100   1.184  10.584 -0.2859 -0.3963 -0.3174
15230SOL    HW247132   0.085   1.049  10.518 -0.9356 -1.1700  1.3649
15231SOL     OW47133   6.868   2.088   0.602 -0.2010  0.0360  0.6357
15231SOL    HW147134   6.892   2.031   0.528 -0.6665 -0.9617  1.2346
15231SOL    HW247135   6.772   2.088   0.601 -0.2011  0.7410  0.7008
15232SOL     OW47136   7.917   0.884  11.123 -0.3268  0.1190  0.1570
15232SOL    HW147137   7.890   0.801  11.084 -0.1998  0.4415 -0.6316
15232SOL    HW247138   7.838   0.917  11.167 -1.3079  1.0390 -2.0880
15233SOL     OW47139   0.831   2.972  10.213 -0.1960 -0.1694 -0.0718
15233SOL    HW147140   0.893   2.903  10.238 -1.5553 -1.8015 -1.0580
15233SOL    HW247141   0.776   2.984  10.290  0.3138  0.1477  0.2506
15234SOL     OW47142   3.478   3.888  10.344 -0.2490 -0.0956 -0.2407
15234SOL    HW147143   3.433   3.890  10.259  1.6224 -2.0463 -1.3919
15234SOL    HW247144   3.482   3.795  10.366  1.4554  0.1856  0.7773
15235SOL     OW47145   7.371   1.645   6.883  0.5624 -0.2627  0.2708
15235SOL    HW147146   7.396   1.698   6.959  0.5782 -0.5251  0.4493
15235SOL    HW247147   7.297   1.692   6.844  1.5786  0.7618 -0.5141
15236SOL     OW47148   1.124   0.113   9.577 -0.3966 -0.3964 -0.0529
15236SOL    HW147149   1.202   0.124   9.523 -0.8064 -0.2366 -0.6295
15236SOL    HW247150   1.105   0.201   9.609 -0.2564 -0.4596  0.1985
15237SOL     OW47151   0.555   5.452   1.306  0.1124 -0.2192  0.3962
15237SOL    HW147152   0.563   5.514   1.379  1.3238  0.2981 -0.1592
15237SOL    HW247153   0.620   5.384   1.325 -0.1980 -0.5616  0.2509
15238SOL     OW47154   6.482   5.221   7.621  0.5818  0.0885  0.1051
15238SOL    HW147155   6.539   5.288   7.582  0.0301  0.4918 -0.0146
15238SOL    HW247156   6.534   5.141   7.616  0.4632  0.0775 -1.6572
15239SOL     OW47157   1.472   0.721   3.434  0.1336 -1.1857 -0.4679
15239SOL    HW147158   1.554   0.698   3.391  0.2560 -1.9410  0.1366
15239SOL    HW247159   1.452   0.645   3.489 -0.5876 -0.7059 -0.0489
15240SOL     OW47160   5.945   6.551   8.381  0.0577  0.4404 -0.3176
15240SOL    HW147161   6.006   6.623   8.396  1.7314 -0.7290 -1.0710
15240SOL    HW247162   5.974   6.513   8.298 -2.7883  0.8270 -1.5919
15241SOL     OW47163   0.402   1.541   6.834 -0.1790 -0.0436 -0.4078
15241SOL    HW147164   0.463   1.562   6.764  1.3188  1.3060  1.1956
15241SOL    HW247165   0.331   1.604   6.824 -1.0964 -1.2289 -1.9125
15242SOL     OW47166   4.517   4.612  12.406  0.3721 -0.0125  0.1173
15242SOL    HW147167   4.568   4.603  12.325  0.7754  0.0186  0.3652
15242SOL    HW247168   4.429   4.634  12.376  0.2792 -0.9834 -0.3519
15243SOL     OW47169   4.710   3.357   5.449 -0.1649  0.5336 -0.0407
15243SOL    HW147170   4.727   3.290   5.382  1.5897  0.5920  0.2953
15243SOL    HW247171   4.629   3.329   5.491 -0.4694 -0.3416 -1.1662
15244SOL     OW47172   2.670   6.876   1.638 -0.0997  0.5250 -0.2248
15244SOL    HW147173   2.662   6.823   1.559 -0.4225  2.0818 -1.2743
15244SOL    HW247174   2.600   6.846   1.695 -1.3584  0.9324 -1.4940
15245SOL     OW47175   5.634   2.801   0.017  0.3745  0.0272 -0.5619
15245SOL    HW147176   5.569   2.750   0.066  1.8646  0.0026  1.5372
15245SOL    HW247177   5.669   2.739  -0.048 -2.4191  0.3746 -2.5769
15246SOL     OW47178   5.423   3.766   2.260  0.2055 -0.3519 -0.9253
15246SOL    HW147179   5.356   3.835   2.263 -0.0226 -0.5998  0.2956
15246SOL    HW247180   5.396   3.705   2.328  2.9075  0.6888  1.2835
15247SOL     OW47181   7.084   2.341   4.888  0.2258  0.3829  0.5630
15247SOL    HW147182   6.995   2.346   4.855  0.2148  1.6726  0.7406
15247SOL    HW247183   7.140   2.355   4.811  0.3113 -1.1589  0.3181
15248SOL     OW47184   5.661   5.812   4.894  0.5735 -0.5470 -0.6554
15248SOL    HW147185   5.649   5.821   4.989 -0.9798  1.2935 -0.9594
15248SOL    HW247186   5.752   5.787   4.884  1.3801  1.3164  1.2573
15249SOL     OW47187   4.516   6.439   7.263 -0.3799 -0.3976 -0.4346
15249SOL    HW147188   4.504   6.514   7.322  0.1792 -0.2864 -0.4575
15249SOL    HW247189   4.498   6.475   7.176  1.4060  0.1223 -0.6282
15250SOL     OW47190   1.645   7.502   7.095  0.1861 -0.0696  0.1768
15250SOL    HW147191   1.661   7.527   7.004  0.5190 -0.1923  0.2012
15250SOL    HW247192   1.639   7.407   7.094  1.8702 -0.1977  0.5377
15251SOL     OW47193   3.230   5.429   2.767 -0.0315  0.4124 -0.0403
15251SOL    HW147194   3.279   5.359   2.810  0.8261  0.8652 -0.2612
15251SOL    HW247195   3.186   5.474   2.839  1.0628  0.9057  0.3532
15252SOL     OW47196   2.327   4.858   6.836 -0.4361  0.2028  0.3931
15252SOL    HW147197   2.239   4.821   6.825 -0.5599  0.3028  1.0299
15252SOL    HW247198   2.357   4.825   6.920  0.8440 -1.2440 -0.5777
15253SOL     OW47199   2.063   1.274   2.717  0.5133 -0.6884 -0.3727
15253SOL    HW147200   2.051   1.343   2.782  1.3828  0.8413 -1.7751
15253SOL    HW247201   2.110   1.205   2.764  2.7797  1.1334  0.2162
15254SOL     OW47202   5.536   7.750   9.656 -0.4690  0.2655 -0.7241
15254SOL    HW147203   5.578   7.836   9.666 -1.5813  0.8219 -0.7181
15254SOL    HW247204   5.504   7.749   9.566 -1.6849  0.4374 -0.3147
15255SOL     OW47205   0.970   2.915   9.866  0.3188  0.2566 -0.5848
15255SOL    HW147206   1.052   2.942   9.908  0.5196  0.6503 -1.1987
15255SOL    HW247207   0.903   2.925   9.933  0.7780 -0.0729 -0.0714
15256SOL     OW47208   4.210   7.796   1.512  0.3516  0.4189 -0.6990
15256SOL    HW147209   4.156   7.813   1.435 -1.4674  0.1716  0.4883
15256SOL    HW247210   4.246   7.881   1.536 -1.0332  0.9390 -0.4107
15257SOL     OW47211   1.613   3.902   4.700  0.0796  0.7039  0.1278
15257SOL    HW147212   1.654   3.956   4.768  0.8740 -1.2055  1.2285
15257SOL    HW247213   1.593   3.819   4.743  0.7061 -0.6378 -1.9884
15258SOL     OW47214   1.795   5.717  12.364  0.3869  0.0940  0.2006
15258SOL    HW147215   1.723   5.674  12.411  0.4208  0.2997  0.4423
15258SOL    HW247216   1.853   5.646  12.338 -1.1985 -0.4313 -2.3164
15259SOL     OW47217   7.643   2.252   3.116 -0.1150  0.4033 -0.1957
15259SOL    HW147218   7.738   2.246   3.109 -0.0165 -4.3115  1.6216
15259SOL    HW247219   7.611   2.218   3.032 -0.2078  0.7590 -0.3079
15260SOL     OW47220   5.919   2.470   9.133  0.0559  0.3345  0.1138
15260SOL    HW147221   5.878   2.464   9.219  0.8720 -0.1202  0.4855
15260SOL    HW247222   5.846   2.478   9.071 -0.4779  3.0421  1.0030
15261SOL     OW47223   2.012   4.412   4.165  0.3116 -0.2090  0.1137
15261SOL    HW147224   1.943   4.400   4.100  1.1800  1.5173 -1.2026
15261SOL    HW247225   1.992   4.496   4.206  0.1871 -0.9328  1.6135
15262SOL     OW47226   2.638   1.613   5.212  0.1923 -0.0815 -0.5958
15262SOL    HW147227   2.730   1.594   5.196  0.2092 -0.7007  0.1964
15262SOL    HW247228   2.620   1.692   5.161  1.9946  1.9338  1.6526
15263SOL     OW47229   3.431   0.864   3.519  1.2379 -0.4659  0.2548
15263SOL    HW147230   3.489   0.930   3.558  1.3187  1.0578 -2.1902
15263SOL    HW247231   3.343   0.897   3.536  1.2633 -0.0537 -0.3527
15264SOL     OW47232   7.477   5.200   8.756 -0.3221 -0.0781 -0.8766
15264SOL    HW147233   7.482   5.104   8.754  0.7031 -0.0261 -1.2513
15264SOL    HW247234   7.386   5.218   8.780 -0.3610 -1.1434 -0.1430
15265SOL     OW47235   6.562   5.505   1.750 -0.4674 -0.1380 -0.2577
15265SOL    HW147236   6.504   5.507   1.674 -1.1434 -0.6281  0.2313
15265SOL    HW247237   6.542   5.585   1.798  0.3146  0.4207 -0.8421
15266SOL     OW47238   5.034   5.840   4.038  0.3167 -0.1600 -0.0406
15266SOL    HW147239   5.117   5.823   4.081  0.0473  1.1147  1.0484
15266SOL    HW247240   4.968   5.815   4.103 -0.0998  1.4875  0.2173
15267SOL     OW47241   3.694   1.191   2.206 -0.6055  0.2301  0.0874
15267SOL    HW147242   3.704   1.240   2.287 -2.6482  0.2526  0.3745
15267SOL    HW247243   3.644   1.113   2.230 -0.9340  0.0562 -1.0631
15268SOL     OW47244   7.541   1.592   0.322  0.5067  0.4695 -0.3998
15268SOL    HW147245   7.603   1.581   0.395  0.7828 -1.7176 -0.8744
15268SOL    HW247246   7.562   1.520   0.263 -1.6396  0.4542 -1.2172
15269SOL     OW47247   1.974   2.037   7.687 -0.0719  0.0633 -0.2159
15269SOL    HW147248   1.882   2.028   7.661 -0.4849  0.1610  1.1554
15269SOL    HW247249   1.976   2.115   7.741  0.4596 -0.9572  1.2933
15270SOL     OW47250   7.644   3.544   6.054  0.6430  0.7844  0.4351
15270SOL    HW147251   7.693   3.598   5.992  0.4345  1.2013  0.6321
15270SOL    HW247252   7.640   3.458   6.012 -1.5944  1.6334 -1.2742
15271SOL     OW47253   5.838   1.459   5.294  0.7725 -0.0062  0.3425
15271SOL    HW147254   5.857   1.549   5.318  1.1481  0.6249 -2.0231
15271SOL    HW247255   5.753   1.440   5.335  1.7112  0.6012  2.7103
15272SOL     OW47256   5.534   1.300  10.167  0.0494  0.3297  0.3880
15272SOL    HW147257   5.599   1.363  10.135 -0.2616 -0.1553 -1.3068
15272SOL    HW247258   5.562   1.216  10.133 -0.6804 -0.1151  0.8537
15273SOL     OW47259   0.834   6.839   5.476 -0.2331 -0.2385  0.1923
15273SOL    HW147260   0.860   6.805   5.391  1.4376  0.6331  0.3126
15273SOL    HW247261   0.892   6.795   5.538 -0.2311  0.4273  0.6751
15274SOL     OW47262   3.186   7.644   9.098 -0.6278 -0.3517 -0.1182
15274SOL    HW147263   3.157   7.556   9.123 -0.1097 -0.7982 -1.0229
15274SOL    HW247264   3.199   7.639   9.003  0.0258  0.5172 -0.0899
15275SOL     OW47265   4.495   7.719   7.852 -0.1094  0.1355  0.3281
15275SOL    HW147266   4.451   7.765   7.780 -1.7098 -2.2771 -0.3538
15275SOL    HW247267   4.579   7.691   7.815 -0.0304  0.6904  0.0756
15276SOL     OW47268   7.716   3.966   8.637  0.7509 -0.4687 -0.1199
15276SOL    HW147269   7.794   3.992   8.686 -0.0265  0.9005  0.4428
15276SOL    HW247270   7.710   3.872   8.649  0.7176 -0.2209  2.2611
15277SOL     OW47271   3.851   2.028   0.913 -0.7466 -0.0910 -0.6069
15277SOL    HW147272   3.766   2.000   0.949  0.9721 -2.8045  1.7766
15277SOL    HW247273   3.868   1.967   0.841  0.8544 -2.3534  1.5251
15278SOL     OW47274   6.192   3.764   7.399 -0.3508 -0.7298 -0.5364
15278SOL    HW147275   6.187   3.774   7.304 -2.4023  0.4004 -0.3567
15278SOL    HW247276   6.134   3.831   7.434  2.3470  0.6748  1.6617
15279SOL     OW47277   3.988   0.680  10.550 -0.4323 -0.1009  0.7899
15279SOL    HW147278   3.949   0.766  10.530  1.5681  0.8085  0.5770
15279SOL    HW247279   4.025   0.651  10.467 -0.8415 -1.0735  0.9296
15280SOL     OW47280   1.087   1.299   7.550  0.7952  0.9296 -0.1839
15280SOL    HW147281   1.046   1.300   7.463 -1.3936 -0.2415  0.7670
15280SOL    HW247282   1.040   1.367   7.599 -0.7010 -0.9572  1.1620
15281SOL     OW47283   0.744   4.102   7.563  0.2805  0.1179  0.4663
15281SOL    HW147284   0.688   4.160   7.615  2.0987  1.3356  1.1329
15281SOL    HW247285   0.827   4.098   7.611  1.0393 -1.0786 -0.8516
15282SOL     OW47286   0.056   1.790   1.689  0.1737  0.1728  0.9154
15282SOL    HW147287   0.034   1.795   1.595 -1.4328  0.8187  1.2939
15282SOL    HW247288   0.133   1.846   1.699  1.8221 -1.7111 -0.3832
15283SOL     OW47289   3.878   4.059  11.556  0.5031 -0.0040 -0.5460
15283SOL    HW147290   3.821   4.100  11.490 -1.0572 -2.6046 -0.9555
15283SOL    HW247291   3.861   4.108  11.636 -1.9580 -0.2988 -0.8091
15284SOL     OW47292   2.637   5.495   0.630 -0.7448 -0.3266 -0.1520
15284SOL    HW147293   2.646   5.454   0.544  0.5023 -2.1282  0.7652
15284SOL    HW247294   2.727   5.519   0.655 -1.2782  1.8416 -0.0586
15285SOL     OW47295   5.328   1.189   2.669  0.2061  0.3172 -0.5234
15285SOL    HW147296   5.246   1.236   2.686 -1.2397 -1.9040 -0.9004
15285SOL    HW247297   5.349   1.148   2.753  0.7550  0.6056 -0.5188
15286SOL     OW47298   2.091   5.316   9.969 -0.4795 -0.4760 -0.4652
15286SOL    HW147299   2.117   5.385   9.908 -0.9269 -0.9026 -1.1511
15286SOL    HW247300   2.010   5.348  10.008  1.0278  0.9203  1.7794
15287SOL     OW47301   3.584   3.623  12.314 -0.2542 -0.7685 -0.2012
15287SOL    HW147302   3.555   3.621  12.223 -1.4282  0.3743  0.1149
15287SOL    HW247303   3.504   3.612  12.365  0.3113 -0.7839  0.7037
15288SOL     OW47304   3.768   3.406  12.316 -0.1436 -0.1971 -0.2407
15288SOL    HW147305   3.794   3.417  12.225 -0.0395 -0.5357 -0.2515
15288SOL    HW247306   3.714   3.483  12.335  1.8415  1.1888  0.1297
15289SOL     OW47307   2.084   4.860   3.098 -0.0328 -0.4457 -0.1605
15289SOL    HW147308   2.162   4.826   3.055  0.5817 -1.6286  1.7770
15289SOL    HW247309   2.033   4.783   3.120 -0.2334  0.0853  1.3583
15290SOL     OW47310   0.264   0.804   5.673  0.0578 -0.1065  0.0471
15290SOL    HW147311   0.285   0.738   5.606 -0.1650 -0.8568  0.6898
15290SOL    HW247312   0.177   0.779   5.703  0.4355 -0.2140  1.1002
15291SOL     OW47313   4.780   1.067   2.296  0.8836 -0.3193 -0.3625
15291SOL    HW147314   4.729   1.143   2.325  3.4960  1.6203 -0.5087
15291SOL    HW247315   4.771   1.066   2.201 -0.4626 -1.2550 -0.2567
15292SOL     OW47316   0.509   1.196  10.775 -0.1279 -0.0719  0.1738
15292SOL    HW147317   0.531   1.196  10.682  0.3003 -0.4660  0.2676
15292SOL    HW247318   0.592   1.213  10.819 -0.3383  0.1706  0.4788
15293SOL     OW47319   6.025   0.615   1.723 -0.2101  0.3525  0.7032
15293SOL    HW147320   6.061   0.551   1.784  1.5582  0.4621 -0.1685
15293SOL    HW247321   5.955   0.659   1.773 -0.1411 -0.8853  1.9587
15294SOL     OW47322   2.112   0.871   3.392 -0.2390  0.2850 -0.5860
15294SOL    HW147323   2.180   0.853   3.328  1.8281 -1.1638  1.8495
15294SOL    HW247324   2.155   0.926   3.458 -1.3353 -0.7933  1.1048
15295SOL     OW47325   5.520   5.239  10.400  0.0529 -0.0880 -0.4476
15295SOL    HW147326   5.531   5.202  10.487 -0.4969 -1.4186 -0.9169
15295SOL    HW247327   5.595   5.205  10.350 -0.0899 -0.0140 -0.7134
15296SOL     OW47328   1.799   0.809   3.000 -0.1323 -0.4333  0.4340
15296SOL    HW147329   1.794   0.730   2.945  2.6309 -1.0499  0.9063
15296SOL    HW247330   1.882   0.850   2.975 -0.6936  1.4080  1.4224
15297SOL     OW47331   0.673   4.983   1.344 -0.2077 -0.0491 -0.1384
15297SOL    HW147332   0.728   4.905   1.348  1.6286  1.1815 -0.0040
15297SOL    HW247333   0.594   4.955   1.298 -0.0557 -2.2083  0.8285
15298SOL     OW47334   2.420   5.986   5.787 -0.7566  0.3445  0.6498
15298SOL    HW147335   2.489   6.005   5.850  0.3789  0.5189 -0.5989
15298SOL    HW247336   2.338   5.993   5.837  0.0596  1.2456  1.8979
15299SOL     OW47337   3.818   2.363   7.332 -0.2415 -0.2241  0.5900
15299SOL    HW147338   3.773   2.279   7.325 -0.9518  0.1690  0.4421
15299SOL    HW247339   3.910   2.339   7.346 -0.7645 -1.0370  3.1495
15300SOL     OW47340   2.176   5.943   2.737 -0.4023  0.1648  0.0007
15300SOL    HW147341   2.126   6.025   2.743 -0.1283  0.4383 -1.1745
15300SOL    HW247342   2.110   5.874   2.739 -0.6838  0.4365  0.3056
15301SOL     OW47343   0.222   1.837   9.593 -0.3138  0.0765  0.2712
15301SOL    HW147344   0.254   1.779   9.523  1.1136  1.4190 -0.2346
15301SOL    HW247345   0.197   1.917   9.548  1.3227  1.2394  1.3317
15302SOL     OW47346   1.125   7.319  10.961  0.3268  0.1974  0.4492
15302SOL    HW147347   1.033   7.292  10.962  0.8922 -1.9058  0.2887
15302SOL    HW247348   1.165   7.269  11.032  1.1387  2.0172  1.3244
15303SOL     OW47349   0.882   5.385   4.123  0.2456 -0.0985  0.1597
15303SOL    HW147350   0.881   5.290   4.111 -1.5893 -0.3009  1.4140
15303SOL    HW247351   0.790   5.409   4.132  0.5119  2.0812 -1.7893
15304SOL     OW47352   2.788   7.187   1.860 -0.2424 -0.2445 -0.4974
15304SOL    HW147353   2.723   7.122   1.888 -0.3495  0.5250  1.1110
15304SOL    HW247354   2.738   7.268   1.851  0.0613 -0.1693 -1.6266
15305SOL     OW47355   5.370   0.278   1.005  0.4962  0.0306  0.0611
15305SOL    HW147356   5.372   0.235   1.091  1.0491 -0.7290 -0.3160
15305SOL    HW247357   5.460   0.269   0.972  0.4823  0.9966 -0.2721
15306SOL     OW47358   5.421   7.588   6.911  0.1323  0.2101  0.1261
15306SOL    HW147359   5.432   7.642   6.832  2.3616 -0.1332  0.1534
15306SOL    HW247360   5.396   7.651   6.979  3.4803  1.4769  0.3600
15307SOL     OW47361   0.326   1.508   9.741 -0.0523 -0.0381 -0.3382
15307SOL    HW147362   0.297   1.431   9.791  0.3964  0.2765  0.4107
15307SOL    HW247363   0.318   1.581   9.801  0.2437  0.3939 -0.8136
15308SOL     OW47364   2.656   1.324   2.689 -0.4555  0.2248  0.6033
15308SOL    HW147365   2.634   1.340   2.781 -0.6849  1.3582  0.3597
15308SOL    HW247366   2.574   1.338   2.641 -0.2950 -0.1782  0.1956
15309SOL     OW47367   3.865   1.187   0.329 -0.4499  0.2659 -0.3089
15309SOL    HW147368   3.838   1.105   0.287  0.5329  0.2563 -0.9404
15309SOL    HW247369   3.957   1.174   0.350 -0.4056  1.0478 -0.0017
15310SOL     OW47370   6.639   5.675   8.197 -0.6827  0.0995 -0.4834
15310SOL    HW147371   6.665   5.684   8.105  2.4087 -1.2240  0.1377
15310SOL    HW247372   6.608   5.762   8.222  0.3800  1.0451 -2.2415
15311SOL     OW47373   3.767   1.087   6.714  0.9850 -0.2800  0.0118
15311SOL    HW147374   3.675   1.095   6.737  1.1909  2.3937  0.2814
15311SOL    HW247375   3.778   0.995   6.689 -1.1467 -1.2939  2.3936
15312SOL     OW47376   4.537   1.073   2.656  0.1310  0.2577  0.0587
15312SOL    HW147377   4.566   1.018   2.583  0.9734  2.0831 -1.0664
15312SOL    HW247378   4.530   1.013   2.730  3.2145 -0.9960 -0.5157
15313SOL     OW47379   1.459   3.358   6.627  0.5420  0.0631 -0.2428
15313SOL    HW147380   1.436   3.347   6.719 -1.2766  1.1571 -0.5071
15313SOL    HW247381   1.392   3.309   6.579  0.7092  0.5427 -0.9880
15314SOL     OW47382   5.037   4.709   3.790  0.0609  0.4832  0.2351
15314SOL    HW147383   5.025   4.708   3.695  1.5701 -1.2981  0.0053
15314SOL    HW247384   4.949   4.697   3.826 -0.2375 -1.4554 -1.0280
15315SOL     OW47385   3.582   5.339   8.467 -0.0691  0.9115  0.4665
15315SOL    HW147386   3.667   5.334   8.511  0.2623 -1.8660 -0.2988
15315SOL    HW247387   3.604   5.336   8.373 -0.9608  1.3983  0.2352
15316SOL     OW47388   4.601   7.699   3.186 -0.0249  0.2405  0.0820
15316SOL    HW147389   4.618   7.634   3.118 -0.6187 -0.6603  0.7835
15316SOL    HW247390   4.672   7.687   3.249 -0.4478 -0.1232  0.4960
15317SOL     OW47391   2.220   1.599   7.879 -0.0217  0.0390  0.2487
15317SOL    HW147392   2.310   1.618   7.852 -0.7645  1.4427 -1.4846
15317SOL    HW247393   2.210   1.647   7.961  1.1603 -1.1655  1.1366
15318SOL     OW47394   3.901   2.821   7.710 -0.4017  0.0420 -0.2483
15318SOL    HW147395   3.870   2.905   7.677 -1.4261  0.7151  2.1921
15318SOL    HW247396   3.842   2.757   7.670  0.1990  0.4715 -1.8907
15319SOL     OW47397   1.367   0.665   7.133  0.4295 -0.1034  0.1604
15319SOL    HW147398   1.447   0.682   7.181  0.3192 -0.2948  0.4114
15319SOL    HW247399   1.338   0.578   7.162 -0.1978  0.2230  0.5335
15320SOL     OW47400   2.082   2.278  11.614 -0.4238  0.2496 -0.8071
15320SOL    HW147401   2.153   2.293  11.677 -1.0277  0.5050 -0.1797
15320SOL    HW247402   2.127   2.268  11.530  0.3474  0.5327 -0.4395
15321SOL     OW47403   6.554   6.299   2.893 -0.0203  0.1072  0.1140
15321SOL    HW147404   6.588   6.250   2.968 -0.7044 -1.5550 -0.6138
15321SOL    HW247405   6.523   6.382   2.930 -0.3833 -0.6941  1.6642
15322SOL     OW47406   2.354   2.383   6.939  0.0447  0.3307 -0.5179
15322SOL    HW147407   2.428   2.439   6.966  0.4608 -0.1119 -0.7247
15322SOL    HW247408   2.288   2.397   7.007 -0.9537  3.1346 -1.8880
15323SOL     OW47409   2.075   6.881   8.217 -0.0275 -0.1274 -0.4718
15323SOL    HW147410   2.130   6.950   8.253 -1.1390  1.1765 -1.2095
15323SOL    HW247411   2.137   6.816   8.183  1.0499  1.1367 -0.9728
15324SOL     OW47412   1.572   5.789  10.215  0.0829  0.0659 -0.0796
15324SOL    HW147413   1.581   5.792  10.120  0.3576 -0.5422 -0.0791
15324SOL    HW247414   1.656   5.756  10.246 -0.3040 -0.5824  0.3080
15325SOL     OW47415   2.535   6.570  12.009  0.0238 -0.2206  0.0496
15325SOL    HW147416   2.520   6.627  12.085 -0.9876 -0.4944  0.0642
15325SOL    HW247417   2.594   6.621  11.953  3.1587 -1.0886  2.2188
15326SOL     OW47418   4.125   0.597  11.298  1.2045 -0.5236  0.2271
15326SOL    HW147419   4.163   0.639  11.220  0.6493 -1.6159 -0.6598
15326SOL    HW247420   4.031   0.616  11.291  0.9492 -1.8730 -0.1779
15327SOL     OW47421   3.617   7.489   0.015 -0.2621 -0.9868 -0.2597
15327SOL    HW147422   3.573   7.552  -0.042 -1.3012 -1.9419 -0.5551
15327SOL    HW247423   3.553   7.418   0.025  0.7597 -1.8450  0.3068
15328SOL     OW47424   2.904   6.771   6.004  0.5073 -0.0508 -0.2424
15328SOL    HW147425   2.934   6.700   5.948 -0.5178 -0.7114  0.0226
15328SOL    HW247426   2.960   6.767   6.081 -1.2549 -2.3944  1.0486
15329SOL     OW47427   2.167   1.806   8.484 -0.3433 -0.2857 -0.3640
15329SOL    HW147428   2.137   1.805   8.394  1.4164  1.0869 -1.0385
15329SOL    HW247429   2.248   1.755   8.483 -0.9506 -1.3142  0.7247
15330SOL     OW47430   4.440   1.962   1.954 -0.3319 -0.0398  0.3263
15330SOL    HW147431   4.349   1.991   1.957 -0.1458  0.6817 -0.5076
15330SOL    HW247432   4.438   1.881   1.902 -0.5667 -0.3292  0.7849
15331SOL     OW47433   2.704   6.440  10.222  0.1472 -0.0983  0.1451
15331SOL    HW147434   2.705   6.349  10.254 -0.5557 -1.0248 -2.2971
15331SOL    HW247435   2.611   6.459  10.209  0.3085  0.9368  0.4364
15332SOL     OW47436   7.512   1.058   9.689  0.5621 -0.3835  0.2093
15332SOL    HW147437   7.428   1.012   9.685 -0.4235  1.2781  0.8754
15332SOL    HW247438   7.578   0.988   9.683 -0.8320 -2.0647  2.6700
15333SOL     OW47439   3.174   6.676   4.538 -0.1279  0.4785 -0.0714
15333SOL    HW147440   3.238   6.746   4.538 -0.2623  0.6347 -1.5703
15333SOL    HW247441   3.106   6.705   4.599  0.0290  1.4541 -0.3503
15334SOL     OW47442   5.618   1.360  12.148 -0.5999  0.0559 -0.4905
15334SOL    HW147443   5.549   1.294  12.161 -2.0661  1.2237 -1.9267
15334SOL    HW247444   5.699   1.315  12.173 -1.9341 -1.0348  2.3370
15335SOL     OW47445   7.930   7.869   9.170 -0.3472 -0.1671 -0.5488
15335SOL    HW147446   8.020   7.850   9.144  0.9366  0.6213  2.8424
15335SOL    HW247447   7.900   7.788   9.211  0.0853  0.5749  1.3192
15336SOL     OW47448   5.037   1.092   3.783 -0.1623 -0.0813  0.7610
15336SOL    HW147449   5.097   1.037   3.733  1.0325 -0.4938  2.5881
15336SOL    HW247450   5.072   1.092   3.872 -0.1809  3.4839  0.9220
15337SOL     OW47451   0.022   2.841  12.380 -0.3455 -0.4353  0.0497
15337SOL    HW147452   0.073   2.761  12.393  0.1617 -0.2974 -0.9552
15337SOL    HW247453   0.049   2.899  12.452  2.0338  0.1658 -1.2108
15338SOL     OW47454   5.783   1.040   2.363 -1.2242  0.2722 -0.6466
15338SOL    HW147455   5.818   1.007   2.281 -0.4838  0.5295 -0.4404
15338SOL    HW247456   5.710   0.981   2.383 -2.2009  0.9198 -2.0841
15339SOL     OW47457   0.976   7.438   0.534 -0.0248  0.1540 -0.1682
15339SOL    HW147458   1.006   7.430   0.443 -1.0146  1.1098 -0.6059
15339SOL    HW247459   0.917   7.514   0.533 -0.1972  0.0633  1.2387
15340SOL     OW47460   2.626   0.191   5.804 -0.1789  0.2889  0.1647
15340SOL    HW147461   2.682   0.265   5.830 -1.2145  1.2412 -0.2003
15340SOL    HW247462   2.542   0.232   5.783 -0.3682 -0.8425 -1.3971
15341SOL     OW47463   7.503   2.204   2.857  0.0525  0.3164  0.0258
15341SOL    HW147464   7.550   2.281   2.824  0.2798 -0.0267 -0.4743
15341SOL    HW247465   7.425   2.239   2.899 -1.0218  0.7294 -2.1650
15342SOL     OW47466   0.122   2.822   1.806  0.4962 -0.6541 -0.2946
15342SOL    HW147467   0.053   2.888   1.795  1.3687  0.0672 -1.6603
15342SOL    HW247468   0.139   2.821   1.900 -0.2007  0.3741 -0.1419
15343SOL     OW47469   5.748   4.070   6.212  0.2327  0.2016  0.7006
15343SOL    HW147470   5.762   4.127   6.137 -0.7094  0.4521  0.7072
15343SOL    HW247471   5.726   4.130   6.284 -0.5470 -0.1509  0.7587
15344SOL     OW47472   2.084   4.464   3.310 -0.1389  0.8247  0.1850
15344SOL    HW147473   2.129   4.380   3.314  0.0030  0.8696 -0.3168
15344SOL    HW247474   2.153   4.529   3.323  0.2112  0.9444 -1.8937
15345SOL     OW47475   0.947   3.507   3.876 -0.6398 -0.2780  0.6657
15345SOL    HW147476   0.870   3.451   3.884  0.2135 -1.6282 -0.1664
15345SOL    HW247477   0.912   3.594   3.855 -2.0077 -0.3903  2.2729
15346SOL     OW47478   7.763   3.874  11.155  0.2520  0.0199  0.1313
15346SOL    HW147479   7.682   3.924  11.153  0.1676 -0.1437 -1.2926
15346SOL    HW247480   7.737   3.787  11.188 -0.3435 -0.3295 -1.2084
15347SOL     OW47481   4.932   0.845   7.731  0.4244  0.0790 -0.0705
15347SOL    HW147482   4.964   0.882   7.649  1.4735 -1.8323 -0.5855
15347SOL    HW247483   4.999   0.866   7.796 -1.1804  3.0573  0.7874
15348SOL     OW47484   5.520   6.103   6.628 -0.0941  0.1280  0.7064
15348SOL    HW147485   5.542   6.141   6.542 -2.9012 -1.2118 -0.7436
15348SOL    HW247486   5.525   6.177   6.688  1.1874  1.2909 -0.7166
15349SOL     OW47487   3.703   3.078   6.139  0.2341 -0.0542 -0.0747
15349SOL    HW147488   3.630   3.076   6.201  0.7642 -3.3165  0.6149
15349SOL    HW247489   3.773   3.124   6.187  0.2981 -1.6130  1.4510
15350SOL     OW47490   6.860   7.230   3.562 -0.2125 -0.0595  0.3498
15350SOL    HW147491   6.926   7.297   3.548  0.5152 -0.9648 -0.6865
15350SOL    HW247492   6.892   7.180   3.637  1.0023 -1.3073 -0.9456
15351SOL     OW47493   5.280   7.904   5.339  0.9844  0.2039  0.3100
15351SOL    HW147494   5.326   7.985   5.317  0.3877  0.9978  1.8277
15351SOL    HW247495   5.303   7.888   5.431 -1.0230  0.1501  0.8381
15352SOL     OW47496   4.847   7.666   7.404  0.2804 -0.7003 -0.3345
15352SOL    HW147497   4.791   7.707   7.339 -0.8736 -0.0923  0.9971
15352SOL    HW247498   4.933   7.707   7.392 -0.2097  0.2234 -0.7352
15353SOL     OW47499   7.923   0.363   8.327  0.2565  0.0696 -0.1616
15353SOL    HW147500   7.935   0.451   8.292 -1.7760 -0.1451 -1.5788
15353SOL    HW247501   7.962   0.306   8.260 -0.4167 -0.1905 -0.3362
15354SOL     OW47502   5.336   4.185   0.965 -0.4478 -0.0260 -0.1765
15354SOL    HW147503   5.288   4.253   1.012 -1.8044 -0.9328 -0.1811
15354SOL    HW247504   5.332   4.212   0.873 -1.4501 -0.3549 -0.2427
15355SOL     OW47505   6.457   4.668  11.891 -0.1999  0.0621  0.5495
15355SOL    HW147506   6.438   4.633  11.804 -0.6568 -0.4638  0.8503
15355SOL    HW247507   6.432   4.760  11.886  1.8991  0.6189 -0.5352
15356SOL     OW47508   7.819   0.559  11.696  0.4796  0.2007 -0.3392
15356SOL    HW147509   7.845   0.535  11.785 -0.5668  1.6811  0.4086
15356SOL    HW247510   7.861   0.494  11.640  0.2131 -1.4813  1.3234
15357SOL     OW47511   3.214   2.609   2.146  0.3063 -0.0200  0.9796
15357SOL    HW147512   3.188   2.542   2.084 -1.9745  1.1100  0.6254
15357SOL    HW247513   3.257   2.676   2.093 -1.1715  0.7013  0.6578
15358SOL     OW47514   7.799   1.152  12.212  0.3816 -0.1191  0.4151
15358SOL    HW147515   7.895   1.158  12.205  0.5800 -1.4759  1.4245
15358SOL    HW247516   7.771   1.125  12.125  0.6721  2.2375 -0.4779
15359SOL     OW47517   5.866   3.542   9.445 -0.0645  0.2037 -0.0609
15359SOL    HW147518   5.810   3.467   9.422 -0.4842  0.9439 -1.5877
15359SOL    HW247519   5.864   3.544   9.541 -2.3659 -0.0524 -0.0299
15360SOL     OW47520   2.090   0.482   7.522 -0.2307 -0.5158  0.5167
15360SOL    HW147521   2.121   0.464   7.611 -0.0481  1.3516  0.8694
15360SOL    HW247522   1.994   0.484   7.530 -0.1977  0.2148  0.8096
15361SOL     OW47523   4.925   7.357   6.183 -0.0113 -0.8147 -0.3497
15361SOL    HW147524   5.003   7.392   6.141  1.6466 -1.4063  2.0471
15361SOL    HW247525   4.889   7.431   6.232 -0.8568 -0.6145 -1.2309
15362SOL     OW47526   0.594   6.962   7.932 -0.4308  0.6050 -0.1331
15362SOL    HW147527   0.613   6.934   8.022  1.3970  0.4672 -0.5023
15362SOL    HW247528   0.550   7.046   7.941 -2.7083 -0.6180  0.9250
15363SOL     OW47529   7.030   7.354   1.526 -0.2528 -0.0273  0.3900
15363SOL    HW147530   7.101   7.416   1.511  0.1956 -0.8774 -1.2882
15363SOL    HW247531   6.951   7.408   1.527  0.0467  0.5416 -1.7929
15364SOL     OW47532   0.904   3.474   8.562  0.1306  0.0911 -0.4791
15364SOL    HW147533   0.820   3.520   8.560 -0.1299 -0.4070 -2.0706
15364SOL    HW247534   0.923   3.464   8.656 -1.1495  0.9714 -0.0957
15365SOL     OW47535   0.094   1.658   5.592 -0.1840  0.1362 -0.4418
15365SOL    HW147536   0.006   1.669   5.557  0.2576  0.5367 -1.4660
15365SOL    HW247537   0.147   1.632   5.516  0.4611 -0.7169  0.2756
15366SOL     OW47538   2.119   7.016   5.131 -0.0430 -0.1421  0.1155
15366SOL    HW147539   2.149   6.995   5.220 -0.7615 -0.3890  0.3057
15366SOL    HW247540   2.197   7.003   5.076  1.0328  2.1773  0.9635
15367SOL     OW47541   5.507   5.959   1.075  0.3995 -0.7842 -0.1044
15367SOL    HW147542   5.472   6.048   1.073  1.9411 -0.1359 -2.5044
15367SOL    HW247543   5.457   5.915   1.144 -2.1051  1.2284 -0.4814
15368SOL     OW47544   1.725   2.649  10.408  0.6349  0.0124 -0.2269
15368SOL    HW147545   1.715   2.718  10.341  0.7352  0.8539  0.6018
15368SOL    HW247546   1.690   2.570  10.366 -1.1384  0.9327 -0.6054
15369SOL     OW47547   3.373   5.863  10.016  0.9774  0.4344 -0.4029
15369SOL    HW147548   3.341   5.871  10.106  0.6237 -1.1131 -0.3616
15369SOL    HW247549   3.454   5.811  10.024  1.7032  1.4581 -0.8520
15370SOL     OW47550   4.686   7.900  12.174  0.3659  0.3763  0.3649
15370SOL    HW147551   4.726   7.963  12.114 -0.4762  1.6466  1.0995
15370SOL    HW247552   4.739   7.821  12.164  2.8943  1.8657  1.0361
15371SOL     OW47553   1.747   6.472  10.420 -0.2250 -0.1636  0.2290
15371SOL    HW147554   1.717   6.504  10.335 -1.7375  1.1562  1.1951
15371SOL    HW247555   1.841   6.487  10.420  0.0736 -1.7267 -1.8149
15372SOL     OW47556   7.222   4.596   2.944 -0.5225  0.6415 -0.0840
15372SOL    HW147557   7.146   4.631   2.990 -1.1944 -1.5568  0.6010
15372SOL    HW247558   7.187   4.527   2.888  0.9984 -0.9791  0.8371
15373SOL     OW47559   2.729   2.599   2.689  0.0762 -0.0799  0.2087
15373SOL    HW147560   2.687   2.684   2.699 -0.2601 -0.2250  0.0591
15373SOL    HW247561   2.746   2.569   2.779 -0.2041 -0.0504  0.2717
15374SOL     OW47562   5.189   4.987   7.519 -0.0625 -0.5120 -0.1531
15374SOL    HW147563   5.133   5.031   7.454 -2.5528  0.7610  2.6441
15374SOL    HW247564   5.138   4.910   7.546  0.6926 -0.7377  0.6655
15375SOL     OW47565   1.430   3.127   7.649 -0.2527  0.2186 -0.2895
15375SOL    HW147566   1.356   3.075   7.617 -0.3403  0.0159  0.2352
15375SOL    HW247567   1.502   3.105   7.589 -0.4842  0.0439 -0.5081
15376SOL     OW47568   0.968   3.576  10.036  0.2423  0.6202 -0.3752
15376SOL    HW147569   1.050   3.527  10.047  0.3383  0.5566 -1.2938
15376SOL    HW247570   0.986   3.635   9.963  0.3109  2.4309  1.0374
15377SOL     OW47571   0.746   0.162  12.441 -0.0634  0.3270 -0.0858
15377SOL    HW147572   0.664   0.211  12.435  0.2448  0.7163 -1.3476
15377SOL    HW247573   0.797   0.190  12.365  1.6367  0.7999  1.1543
15378SOL     OW47574   7.319   4.590  11.182  0.6116  0.1361 -0.4909
15378SOL    HW147575   7.392   4.536  11.213  0.2790  0.2855  0.6113
15378SOL    HW247576   7.284   4.542  11.107 -0.1557 -1.6273  0.9005
15379SOL     OW47577   6.691   6.984  11.504  0.2578 -0.5068  0.3645
15379SOL    HW147578   6.688   6.926  11.428  1.9913 -1.4788  0.9827
15379SOL    HW247579   6.622   6.950  11.561 -1.9514  1.0241 -1.2278
15380SOL     OW47580   6.731   0.963   2.761  0.0282  0.3554  0.6396
15380SOL    HW147581   6.723   1.055   2.784 -1.8889  0.1392  1.0483
15380SOL    HW247582   6.723   0.961   2.665  3.4583  0.8505  0.2368
15381SOL     OW47583   7.126   1.025  10.827 -0.2636  0.2372 -0.0511
15381SOL    HW147584   7.117   1.118  10.849  0.1364  0.8281 -2.0874
15381SOL    HW247585   7.183   0.989  10.895  0.4487  1.7402  0.1796
15382SOL     OW47586   4.518   2.538   4.905  0.1984  0.2842 -0.1137
15382SOL    HW147587   4.580   2.599   4.944 -1.4012  2.6619 -1.0532
15382SOL    HW247588   4.502   2.572   4.817 -1.7338 -0.7527 -0.2223
15383SOL     OW47589   0.056   1.420   6.158 -0.3177  0.6947 -0.7495
15383SOL    HW147590   0.074   1.333   6.121 -0.5615  0.1949  0.2856
15383SOL    HW247591   0.141   1.453   6.185 -0.2979  0.5205 -0.5955
15384SOL     OW47592   0.565   3.252  11.489  0.1456 -0.2764 -0.0813
15384SOL    HW147593   0.509   3.258  11.411 -1.2489  1.6052  0.9752
15384SOL    HW247594   0.650   3.287  11.461 -0.2335  0.0412 -0.8542
15385SOL     OW47595   3.859   0.602  11.516  0.0430  0.1334 -0.2398
15385SOL    HW147596   3.942   0.587  11.562  0.5805  1.8414 -0.5978
15385SOL    HW247597   3.877   0.674  11.457 -1.6190  0.2962 -0.5882
15386SOL     OW47598   4.590   4.168   9.608  0.2539  0.1052  0.1731
15386SOL    HW147599   4.639   4.199   9.532 -0.7827 -1.2706 -1.1480
15386SOL    HW247600   4.649   4.107   9.652  0.5062  0.1226 -0.1368
15387SOL     OW47601   6.684   5.704   6.565 -0.4708 -0.0447 -0.2647
15387SOL    HW147602   6.641   5.710   6.480 -1.3876 -0.0781  0.1871
15387SOL    HW247603   6.772   5.738   6.549 -1.1377  1.4974 -0.8717
15388SOL     OW47604   2.428   2.309   8.986  0.4483 -0.3023  0.7886
15388SOL    HW147605   2.357   2.355   8.940  0.3172 -1.3233 -0.0708
15388SOL    HW247606   2.456   2.241   8.925  1.7128 -0.3551  1.4029
15389SOL     OW47607   1.781   5.023   4.233 -0.6815  0.7566 -0.3033
15389SOL    HW147608   1.853   4.982   4.186 -0.5771 -0.2983  0.7263
15389SOL    HW247609   1.709   5.025   4.171  0.0452  1.2468 -1.1440
15390SOL     OW47610   4.646   2.910   5.869 -0.3726 -0.0857  0.5127
15390SOL    HW147611   4.678   2.979   5.811 -0.4614  0.4108  1.0492
15390SOL    HW247612   4.558   2.939   5.894 -1.1302 -1.2497 -0.6499
15391SOL     OW47613   3.436   0.090   9.708 -0.0192 -0.3721  0.4356
15391SOL    HW147614   3.370   0.025   9.684  0.0234 -0.0309 -0.6329
15391SOL    HW247615   3.520   0.047   9.694  0.2025  1.0865 -4.2914
15392SOL     OW47616   2.644   2.226   3.488  0.3755 -0.0733 -0.1681
15392SOL    HW147617   2.623   2.232   3.581 -0.4865 -0.2082 -0.3512
15392SOL    HW247618   2.730   2.183   3.486  1.6010  2.1781  0.6670
15393SOL     OW47619   2.791   0.847   7.300  0.0561 -0.2344  0.1867
15393SOL    HW147620   2.882   0.862   7.326 -0.5174  1.4306  1.4008
15393SOL    HW247621   2.743   0.837   7.383 -1.2119  1.2444 -0.3225
15394SOL     OW47622   7.729   2.560   7.530  0.0862 -0.2913  0.4059
15394SOL    HW147623   7.732   2.590   7.439 -2.2266  0.0750  0.4016
15394SOL    HW247624   7.820   2.569   7.561  0.2934  3.1418 -0.7437
15395SOL     OW47625   6.789   2.657   8.689 -0.3080 -0.1089  0.0852
15395SOL    HW147626   6.862   2.719   8.695 -0.9748  0.7095 -0.1298
15395SOL    HW247627   6.760   2.646   8.779 -2.5663  2.8139 -0.1621
15396SOL     OW47628   4.715   4.504   1.779  0.0656  0.1632 -0.0659
15396SOL    HW147629   4.625   4.511   1.812 -0.1900 -1.5116 -0.3032
15396SOL    HW247630   4.716   4.421   1.731  2.0438 -0.4289  0.9013
15397SOL     OW47631   1.401   2.170   3.680 -0.0179  0.4089 -0.1161
15397SOL    HW147632   1.397   2.141   3.772 -0.0775  1.5898  0.2631
15397SOL    HW247633   1.380   2.091   3.630  0.3982 -0.3506  0.8661
15398SOL     OW47634   1.784   7.479   8.377  0.1082  0.5409 -0.2316
15398SOL    HW147635   1.766   7.571   8.357  1.9182  0.8560 -0.6003
15398SOL    HW247636   1.727   7.430   8.318 -0.6967  1.4120 -0.2063
15399SOL     OW47637   3.092   0.339   2.009 -0.7478 -0.1928  0.0246
15399SOL    HW147638   3.178   0.308   2.037 -0.4430  0.1826 -0.4895
15399SOL    HW247639   3.110   0.419   1.959 -1.3414 -0.4151 -0.5611
15400SOL     OW47640   7.023   0.009   7.777  0.4242 -0.1786  0.2125
15400SOL    HW147641   7.086  -0.045   7.730  1.5680 -0.3263  1.8450
15400SOL    HW247642   6.940  -0.006   7.732  1.7306  1.0157 -2.8306
15401SOL     OW47643   2.601   4.526  12.087 -0.0802  0.4432 -0.1323
15401SOL    HW147644   2.525   4.532  12.029 -0.5289  1.7029  0.5652
15401SOL    HW247645   2.676   4.545  12.031 -0.3181 -0.2053 -0.6891
15402SOL     OW47646   6.799   4.535  11.514 -0.1001  0.5637  0.0766
15402SOL    HW147647   6.779   4.570  11.601 -1.7106  0.9356 -0.4045
15402SOL    HW247648   6.894   4.520  11.515 -0.2458 -0.7036  2.3480
15403SOL     OW47649   3.737   1.250   1.016 -0.8343 -0.2452  0.0613
15403SOL    HW147650   3.701   1.178   0.964 -2.2700 -0.6191  1.4665
15403SOL    HW247651   3.736   1.217   1.106  1.0113  0.5856  0.4365
15404SOL     OW47652   4.023   7.604  11.687 -0.0161 -0.2876  0.5606
15404SOL    HW147653   4.115   7.588  11.669 -0.3899 -1.2408 -0.5893
15404SOL    HW247654   3.976   7.556  11.619 -1.3176  2.4378 -0.5889
15405SOL     OW47655   3.380   6.364   5.173 -0.3520  0.7014 -0.0833
15405SOL    HW147656   3.292   6.383   5.141 -0.6629  1.7185  1.2778
15405SOL    HW247657   3.374   6.371   5.268  1.0982  0.3517  0.0693
15406SOL     OW47658   4.399   7.345   6.080 -0.4280 -0.3561  0.5254
15406SOL    HW147659   4.494   7.359   6.078 -0.4347 -0.2800  0.7780
15406SOL    HW247660   4.366   7.410   6.141 -1.0463  2.0912 -2.1628
15407SOL     OW47661   0.204   6.343   5.919 -0.6771  0.4692 -0.4147
15407SOL    HW147662   0.295   6.359   5.942 -1.3576  1.8309  1.6457
15407SOL    HW247663   0.155   6.406   5.973 -2.8608 -0.6968 -0.9520
15408SOL     OW47664   2.706   3.498   5.018  0.4632 -0.4586 -0.1059
15408SOL    HW147665   2.762   3.565   5.059 -0.2874  0.8767 -1.1931
15408SOL    HW247666   2.716   3.513   4.924 -1.9943  0.0859 -0.3417
15409SOL     OW47667   0.977   2.631   3.357 -0.3314  0.4890  0.1253
15409SOL    HW147668   0.958   2.721   3.382 -0.5073  0.7931 -1.0488
15409SOL    HW247669   1.073   2.624   3.363 -0.3791  0.4900  1.0294
15410SOL     OW47670   4.926   5.526   1.052 -0.2965 -0.3939 -0.1394
15410SOL    HW147671   4.853   5.469   1.028 -0.2404 -0.4434 -0.1926
15410SOL    HW247672   4.908   5.608   1.008 -0.6443 -0.2006  0.3474
15411SOL     OW47673   4.201   7.509   3.607  0.1878 -0.4051 -0.0132
15411SOL    HW147674   4.178   7.539   3.695 -3.0015  1.2174 -1.2170
15411SOL    HW247675   4.295   7.522   3.601  0.4085  0.0861  2.9129
15412SOL     OW47676   1.435   6.038   7.986  0.3443 -0.2887 -0.6989
15412SOL    HW147677   1.435   6.123   8.029 -5.1132 -0.8984  1.3772
15412SOL    HW247678   1.435   6.057   7.892 -0.7947  2.0536 -0.2840
15413SOL     OW47679   5.069   3.299  10.954  0.3701  0.6841 -0.4802
15413SOL    HW147680   4.996   3.237  10.952 -1.4815  2.7168 -1.9001
15413SOL    HW247681   5.070   3.333  11.044 -0.5950  0.7744 -0.4945
15414SOL     OW47682   7.365   3.297   8.603  0.0432  0.1767 -0.0870
15414SOL    HW147683   7.368   3.291   8.698  0.2029 -0.2534 -0.1205
15414SOL    HW247684   7.420   3.226   8.572  0.9080  0.9874 -0.4845
15415SOL     OW47685   2.598   6.636   6.515 -0.0379 -0.5211  0.4324
15415SOL    HW147686   2.582   6.655   6.608 -0.8412 -1.2629  0.4626
15415SOL    HW247687   2.662   6.701   6.487  0.4045 -0.4436  1.5774
15416SOL     OW47688   3.660   0.918   3.823 -0.2073  0.0591 -0.2788
15416SOL    HW147689   3.603   0.952   3.755  0.6027  0.1489 -0.9291
15416SOL    HW247690   3.703   0.995   3.860 -0.4000 -0.0180  0.1112
15417SOL     OW47691   6.685   2.008   2.769 -0.5107 -0.1988 -0.3486
15417SOL    HW147692   6.599   2.046   2.787 -0.2369  0.5618 -0.5978
15417SOL    HW247693   6.746   2.060   2.820  0.0058  0.4895 -1.6144
15418SOL     OW47694   6.130   7.594   6.210  0.2877 -0.1634 -0.1368
15418SOL    HW147695   6.159   7.593   6.301  0.0593  3.2361  0.0728
15418SOL    HW247696   6.050   7.646   6.210  1.1752  1.3778 -2.4787
15419SOL     OW47697   2.275   5.991   4.430  0.2296 -0.0601 -0.1693
15419SOL    HW147698   2.268   5.952   4.343  2.1620 -0.6131 -0.1235
15419SOL    HW247699   2.289   6.085   4.414 -0.2811 -0.0223 -0.4101
15420SOL     OW47700   7.342   2.713  10.329 -0.0537 -0.0070  0.6115
15420SOL    HW147701   7.271   2.653  10.307 -0.8109  0.4004  1.8311
15420SOL    HW247702   7.421   2.665  10.306 -0.6942 -0.6415 -0.3764
15421SOL     OW47703   7.760   2.342   1.593 -0.4942 -0.0108 -0.1945
15421SOL    HW147704   7.816   2.265   1.608 -0.4875  0.1450  0.6191
15421SOL    HW247705   7.697   2.313   1.527 -0.8635 -0.9131  0.5319
15422SOL     OW47706   4.607   7.131  11.928  0.5517  0.2626 -0.4531
15422SOL    HW147707   4.649   7.131  11.842  3.4093 -0.5121  0.8251
15422SOL    HW247708   4.619   7.041  11.961 -0.0985  0.6522  0.9232
15423SOL     OW47709   5.675   1.858  12.388 -0.4597  0.2841 -0.4716
15423SOL    HW147710   5.669   1.845  12.482 -0.0304  0.1746 -0.4557
15423SOL    HW247711   5.620   1.934  12.370  0.6973  1.2907  0.0917
15424SOL     OW47712   3.292   2.810   0.301 -0.2128 -0.1831 -0.2260
15424SOL    HW147713   3.354   2.840   0.234 -0.9566 -0.6326 -1.1335
15424SOL    HW247714   3.268   2.722   0.274 -0.1546 -0.5678  0.9198
15425SOL     OW47715   4.724   5.373   7.317 -0.1691  0.1015 -0.5534
15425SOL    HW147716   4.679   5.342   7.396  0.5310 -1.7718 -0.8535
15425SOL    HW247717   4.713   5.468   7.320 -1.4769 -0.0504  0.9864
15426SOL     OW47718   2.114   1.213   8.390  0.3863  0.0036 -0.2633
15426SOL    HW147719   2.094   1.119   8.383 -1.5119  0.1118  2.3175
15426SOL    HW247720   2.070   1.241   8.470  0.8985  3.1414 -0.9529
15427SOL     OW47721   6.308   3.001   7.205  0.1024  0.2629  0.0375
15427SOL    HW147722   6.367   2.985   7.131  2.4089 -2.2408  2.1881
15427SOL    HW247723   6.221   2.985   7.170  1.1328 -1.3360 -2.0491
15428SOL     OW47724   0.594   6.898  11.449  0.5807 -0.4933 -0.5600
15428SOL    HW147725   0.676   6.947  11.450 -0.0400  0.6239  1.2245
15428SOL    HW247726   0.533   6.955  11.402  0.3565 -0.4168 -0.1853
15429SOL     OW47727   5.838   5.735   9.439  0.3291 -0.6327  0.3819
15429SOL    HW147728   5.776   5.732   9.366 -1.2152 -3.1577  1.6703
15429SOL    HW247729   5.782   5.744   9.516  1.7320 -1.0475  1.4710
15430SOL     OW47730   2.192   6.381  11.025  0.1325 -0.5943  0.2442
15430SOL    HW147731   2.157   6.385  11.114  0.1459  0.6876  0.2181
15430SOL    HW247732   2.116   6.395  10.969 -0.0025 -2.1460  0.0026
15431SOL     OW47733   7.334   4.455   3.947  0.4143  0.0155 -0.0345
15431SOL    HW147734   7.291   4.372   3.970  1.2264  0.0006  1.5746
15431SOL    HW247735   7.368   4.488   4.030  1.9409  0.9088 -0.9663
15432SOL     OW47736   6.398   5.289   8.847 -0.1555  0.4452 -0.3817
15432SOL    HW147737   6.328   5.323   8.791 -1.1021 -1.1976 -0.2649
15432SOL    HW247738   6.463   5.255   8.786 -1.0779 -1.1282 -0.5572
15433SOL     OW47739   7.800   2.288   4.973 -0.4998 -0.1934 -0.7063
15433SOL    HW147740   7.740   2.357   5.001  1.3182  0.1614  2.8348
15433SOL    HW247741   7.886   2.331   4.968  0.8237 -2.1655  2.2903
15434SOL     OW47742   6.570   4.475   8.014 -0.0521 -0.3847 -0.5929
15434SOL    HW147743   6.598   4.414   7.946 -0.9276  0.4029 -1.6871
15434SOL    HW247744   6.609   4.559   7.990 -2.6978  0.5979 -1.8233
15435SOL     OW47745   2.403   0.773   2.995  0.0471 -0.0335  0.6147
15435SOL    HW147746   2.394   0.849   2.938 -0.2948 -0.5926 -0.1080
15435SOL    HW247747   2.494   0.747   2.986  0.2455  0.4734  1.1143
15436SOL     OW47748   6.475   4.870   7.183  0.3049 -0.5226 -0.4216
15436SOL    HW147749   6.439   4.922   7.111  0.9551  0.4240 -0.0790
15436SOL    HW247750   6.446   4.781   7.165  0.5559 -0.3257 -1.9321
15437SOL     OW47751   3.225   3.151   8.990 -0.3508 -0.1344  0.0168
15437SOL    HW147752   3.191   3.239   9.002  3.1373  1.2080  1.5891
15437SOL    HW247753   3.187   3.100   9.063 -1.3195  0.4074 -0.0956
15438SOL     OW47754   0.380   6.416   6.206  0.1037 -0.0600  0.0172
15438SOL    HW147755   0.362   6.510   6.209  1.9920  0.3128  1.4447
15438SOL    HW247756   0.433   6.405   6.127  2.6675  0.7114  1.5131
15439SOL     OW47757   0.491   3.073   7.665 -0.4033  0.3444 -0.4771
15439SOL    HW147758   0.498   3.127   7.744  1.3231 -0.0038 -0.3644
15439SOL    HW247759   0.501   3.135   7.593  1.8075  0.2151 -0.3461
15440SOL     OW47760   1.847   4.985   1.202  0.3434 -0.2423 -0.3929
15440SOL    HW147761   1.814   5.074   1.190  0.4085  0.4726  3.4408
15440SOL    HW247762   1.873   4.956   1.114 -1.0881  2.9074 -1.9903
15441SOL     OW47763   3.268   5.302   7.199 -0.1943 -0.6035 -0.4383
15441SOL    HW147764   3.229   5.278   7.115  0.2824  0.6054 -1.0351
15441SOL    HW247765   3.339   5.361   7.176 -1.4072  1.5111  0.9045
15442SOL     OW47766   0.185   0.491   5.956 -0.0625  0.0207 -0.0620
15442SOL    HW147767   0.246   0.501   5.883  1.2574  1.8148  1.1973
15442SOL    HW247768   0.212   0.557   6.019 -0.6433 -1.9695  2.4333
15443SOL     OW47769   7.367   2.264  10.111  0.3117 -0.1088 -0.4634
15443SOL    HW147770   7.360   2.247  10.017  0.2170 -0.4684 -0.3893
15443SOL    HW247771   7.278   2.282  10.140  0.5022  1.3763 -0.7022
15444SOL     OW47772   4.975   7.239   4.249  0.1452 -0.3922 -0.0684
15444SOL    HW147773   5.019   7.216   4.167 -0.0425  0.3961 -0.3911
15444SOL    HW247774   4.938   7.156   4.280 -1.0837 -0.4463 -1.5596
15445SOL     OW47775   7.137   7.787   8.592 -0.6867 -0.2158 -0.3762
15445SOL    HW147776   7.219   7.837   8.590 -1.2070  0.6357 -1.2288
15445SOL    HW247777   7.077   7.840   8.644 -1.0717 -0.2189 -0.8067
15446SOL     OW47778   4.405   2.858   1.506 -0.4795 -0.0131 -0.0572
15446SOL    HW147779   4.325   2.817   1.541 -1.0103 -0.0373 -1.2689
15446SOL    HW247780   4.391   2.952   1.519 -0.3712 -0.0547  0.3982
15447SOL     OW47781   2.737   6.516   4.361 -0.5925 -0.0636 -0.3702
15447SOL    HW147782   2.740   6.485   4.270 -0.0333 -0.6159 -0.1711
15447SOL    HW247783   2.720   6.437   4.412 -0.2272  0.1373  0.0607
15448SOL     OW47784   7.978   6.673   9.370 -0.2086 -0.8875 -0.0387
15448SOL    HW147785   7.978   6.734   9.297  1.4532  0.7134  1.1987
15448SOL    HW247786   8.031   6.599   9.340  1.8476  0.4739  0.0175
15449SOL     OW47787   6.442   2.370  11.155 -0.3556  0.0349 -0.2441
15449SOL    HW147788   6.523   2.356  11.204 -0.5464 -0.2999 -0.0122
15449SOL    HW247789   6.469   2.381  11.064 -0.1100 -0.9606 -0.3068
15450SOL     OW47790   6.187   3.439   9.578  0.7852 -0.6156 -0.4972
15450SOL    HW147791   6.208   3.509   9.640  0.8789 -1.1944  0.1324
15450SOL    HW247792   6.107   3.469   9.534 -0.1708 -0.8853  1.0038
15451SOL     OW47793   4.225   2.326   0.257  0.4834  1.4075  0.0846
15451SOL    HW147794   4.210   2.328   0.352 -0.7924 -1.4320  0.0467
15451SOL    HW247795   4.273   2.244   0.242 -1.3005  0.6401 -1.8974
15452SOL     OW47796   3.376   5.779   5.647 -0.0349  0.3597  0.0474
15452SOL    HW147797   3.469   5.756   5.645 -0.0660  0.1555  0.8626
15452SOL    HW247798   3.366   5.840   5.574  0.5821 -0.1889 -0.5233
15453SOL     OW47799   4.290   0.805   0.866  0.4533  0.8694  0.2935
15453SOL    HW147800   4.372   0.812   0.818 -0.2574  2.1831 -0.8202
15453SOL    HW247801   4.243   0.734   0.822 -0.0854  1.8931 -0.8506
15454SOL     OW47802   6.470   6.067   3.434  0.3072 -0.6164 -0.3630
15454SOL    HW147803   6.488   5.981   3.396 -0.8169 -1.0167 -0.0403
15454SOL    HW247804   6.382   6.089   3.403  0.0039 -0.2376  0.7064
15455SOL     OW47805   3.128   0.309  11.536  0.1963  0.1282  0.2719
15455SOL    HW147806   3.135   0.365  11.458 -1.2832 -1.5016 -1.1413
15455SOL    HW247807   3.070   0.357  11.595 -0.8602  0.2280 -0.8120
15456SOL     OW47808   6.575   4.525   9.034  0.4467 -0.0317  0.0645
15456SOL    HW147809   6.639   4.568   9.091  2.2443 -0.7010 -1.3511
15456SOL    HW247810   6.623   4.451   8.995 -1.3487 -0.8710 -0.6645
15457SOL     OW47811   5.104   1.336  10.564  0.3784  0.0980  0.1039
15457SOL    HW147812   5.055   1.354  10.644 -2.5817  2.0104 -1.9071
15457SOL    HW247813   5.123   1.242  10.568 -1.3093 -0.2342  2.2199
15458SOL     OW47814   1.777   1.012   9.406 -0.0641 -0.1933 -0.2451
15458SOL    HW147815   1.868   1.020   9.437 -0.0045  3.8733 -0.8871
15458SOL    HW247816   1.783   1.013   9.311 -0.7870 -0.3574 -0.3021
15459SOL     OW47817   0.621   7.353   1.261  0.0739  0.1297  0.0670
15459SOL    HW147818   0.578   7.271   1.238 -1.7431  1.0464  0.0133
15459SOL    HW247819   0.708   7.346   1.224 -0.7105 -0.9620 -1.6689
15460SOL     OW47820   4.505   6.626   1.893  0.0367  0.5418  0.5965
15460SOL    HW147821   4.578   6.667   1.941  0.7385 -0.7156  0.6620
15460SOL    HW247822   4.468   6.563   1.955  0.7656 -0.8978 -0.3450
15461SOL     OW47823   6.751   4.303   3.705  0.4145  0.7900  0.3866
15461SOL    HW147824   6.701   4.379   3.676  0.7463  0.6363 -0.6218
15461SOL    HW247825   6.713   4.229   3.657  3.0005  0.9671 -2.1690
15462SOL     OW47826   4.983   4.629   9.455  0.2131 -0.0086 -0.5229
15462SOL    HW147827   4.897   4.652   9.419  0.2870 -2.4335 -2.5518
15462SOL    HW247828   4.967   4.613   9.548 -1.2984  0.6063 -0.6516
15463SOL     OW47829   6.624   7.931   7.377 -0.0853 -0.0302  0.8612
15463SOL    HW147830   6.550   7.991   7.370  0.1804  0.2507  0.3945
15463SOL    HW247831   6.699   7.988   7.392  0.3329 -0.1524 -0.6843
15464SOL     OW47832   7.829   0.656   2.030  0.3355  0.2415  0.0969
15464SOL    HW147833   7.896   0.638   2.096  0.5559  2.3111  0.5037
15464SOL    HW247834   7.764   0.587   2.043  1.4174 -0.6639  1.0044
15465SOL     OW47835   2.128   0.039  10.040 -0.3478 -0.1216  0.2247
15465SOL    HW147836   2.194   0.107  10.027 -0.6875  0.1053 -0.3345
15465SOL    HW247837   2.157  -0.006  10.119  0.4418  0.0142  0.0290
15466SOL     OW47838   7.089   2.684  11.930  0.0185  0.1423  0.4502
15466SOL    HW147839   7.084   2.733  12.012 -0.5357  0.0966  0.4472
15466SOL    HW247840   7.107   2.751  11.863 -0.9285  0.3782  0.4181
15467SOL     OW47841   7.202   3.296   3.411 -0.4443  0.0532  0.0885
15467SOL    HW147842   7.112   3.289   3.441 -0.3091  1.1234  0.7722
15467SOL    HW247843   7.243   3.358   3.470  0.5317  0.2077 -0.7153
15468SOL     OW47844   3.765   3.572   4.992 -0.4088  0.4061 -0.0828
15468SOL    HW147845   3.713   3.576   4.912 -0.9397 -0.7557  0.1807
15468SOL    HW247846   3.756   3.481   5.022  2.6398 -0.1929 -0.6138
15469SOL     OW47847   5.018   7.423   1.635  0.0926  0.3804 -0.3168
15469SOL    HW147848   5.106   7.404   1.602 -0.1509  0.4238 -1.0102
15469SOL    HW247849   5.023   7.513   1.667  0.3241  0.3504 -0.2663
15470SOL     OW47850   1.652   6.781   3.366  0.1342  0.1458  0.1960
15470SOL    HW147851   1.709   6.789   3.442  1.8558  2.1078 -1.1868
15470SOL    HW247852   1.671   6.695   3.330 -0.0192 -0.4186  1.4263
15471SOL     OW47853   1.157   6.331   0.202  0.2521  0.0841  0.3072
15471SOL    HW147854   1.203   6.398   0.252 -0.3481 -0.8391  2.2032
15471SOL    HW247855   1.182   6.248   0.244 -0.4571 -0.7095 -0.7828
15472SOL     OW47856   7.908   7.205   5.979 -0.2639 -0.1666  0.2504
15472SOL    HW147857   7.826   7.254   5.989 -1.1191 -1.2405 -1.1563
15472SOL    HW247858   7.947   7.208   6.066 -0.9212  1.8517  0.5393
15473SOL     OW47859   5.331   6.157  11.858 -0.1761  0.1986  0.0120
15473SOL    HW147860   5.237   6.177  11.862 -0.2477  0.0194 -0.5821
15473SOL    HW247861   5.343   6.082  11.915  0.2219  2.2937  2.9381
15474SOL     OW47862   4.997   0.974   8.243 -0.5503 -0.5653  0.0709
15474SOL    HW147863   4.998   0.968   8.338 -1.0443 -3.6147 -0.0147
15474SOL    HW247864   4.947   1.053   8.224 -1.3521 -0.4710  2.3368
15475SOL     OW47865   5.452   4.512   0.730 -0.0720  0.0958  0.8776
15475SOL    HW147866   5.457   4.552   0.817  0.8807  0.4169  0.6827
15475SOL    HW247867   5.447   4.586   0.670  0.0497 -0.1101  0.6143
15476SOL     OW47868   4.687   5.715   4.811 -0.3080 -0.2958 -0.1200
15476SOL    HW147869   4.615   5.707   4.749  0.2821  1.0313 -1.0150
15476SOL    HW247870   4.645   5.710   4.897 -1.1973 -1.6539 -0.5986
15477SOL     OW47871   5.756   6.776  10.037 -0.0479  0.2114 -0.9301
15477SOL    HW147872   5.838   6.799  10.081 -0.3943 -0.5249  0.1394
15477SOL    HW247873   5.758   6.825   9.954  0.9104  1.1423 -0.3765
15478SOL     OW47874   4.090   5.178   3.470 -0.6685 -0.2803 -0.0648
15478SOL    HW147875   4.106   5.085   3.487 -0.5838 -0.2929 -0.2105
15478SOL    HW247876   4.178   5.217   3.465 -0.6459 -0.4447 -1.3919
15479SOL     OW47877   5.109   2.094   3.835 -0.2406  0.5849 -0.1919
15479SOL    HW147878   5.040   2.098   3.901 -0.0267 -1.8659  0.2801
15479SOL    HW247879   5.182   2.143   3.873 -0.3826 -0.1501  1.0916
15480SOL     OW47880   3.882   6.818   3.945  0.2906 -0.1692  0.1492
15480SOL    HW147881   3.888   6.914   3.943 -2.0591  0.0431  0.0837
15480SOL    HW247882   3.917   6.794   4.030  2.7079  0.5237 -0.5687
15481SOL     OW47883   3.179   2.806   5.963  0.2659  0.2328 -0.5674
15481SOL    HW147884   3.132   2.886   5.938 -0.8869  0.2586  1.4620
15481SOL    HW247885   3.198   2.818   6.056 -0.4108 -2.0654 -0.0801
15482SOL     OW47886   1.874   4.219   1.225 -0.1264  0.4626 -0.0970
15482SOL    HW147887   1.874   4.307   1.262  1.4294 -0.3296  2.0560
15482SOL    HW247888   1.805   4.173   1.273 -0.3310  0.2767 -0.5678
15483SOL     OW47889   4.009   3.444  11.840  0.2048 -0.1382  0.0701
15483SOL    HW147890   3.919   3.412  11.841  0.8260 -1.9971  0.7024
15483SOL    HW247891   4.045   3.416  11.924  1.3862  0.5578 -0.1810
15484SOL     OW47892   0.104   4.032   5.675 -0.3279 -0.6148 -0.5673
15484SOL    HW147893   0.017   4.067   5.690  0.3152  0.7727  0.1542
15484SOL    HW247894   0.098   3.988   5.590 -1.2255  1.2990 -1.5684
15485SOL     OW47895   0.022   7.878   1.509  0.0282  0.1591 -0.3929
15485SOL    HW147896   0.092   7.819   1.537  0.2881  1.0086  0.8185
15485SOL    HW247897   0.054   7.915   1.427  0.4027 -0.4592 -0.5316
15486SOL     OW47898   3.537   7.557   2.297  0.1673  0.2806  0.0129
15486SOL    HW147899   3.552   7.572   2.203  0.1719 -0.5334 -0.1214
15486SOL    HW247900   3.540   7.462   2.307  2.5640  0.4193  1.2525
15487SOL     OW47901   2.392   7.531   3.498 -0.6829 -0.0958  0.1339
15487SOL    HW147902   2.341   7.455   3.528  0.8664 -0.4892  1.9605
15487SOL    HW247903   2.463   7.492   3.446 -1.6913  0.3873 -1.6785
15488SOL     OW47904   1.082   6.054   3.309 -1.0686  0.6416  0.1479
15488SOL    HW147905   0.997   6.036   3.269 -0.9566  2.0702 -0.7810
15488SOL    HW247906   1.067   6.130   3.366 -0.3795  1.0470 -0.1900
15489SOL     OW47907   3.536   4.892   1.565  0.7392  0.1756  0.6283
15489SOL    HW147908   3.533   4.973   1.615  2.6149  0.4648  0.3400
15489SOL    HW247909   3.444   4.867   1.553  0.1395  2.1352  0.8918
15490SOL     OW47910   1.014   7.159  10.723 -0.1471  0.4507  0.1524
15490SOL    HW147911   0.929   7.119  10.738  0.0635 -0.0118  0.1106
15490SOL    HW247912   1.063   7.143  10.804 -0.5071  1.7769  0.6628
15491SOL     OW47913   3.458   7.338   1.113 -0.3750  0.0199 -0.2414
15491SOL    HW147914   3.523   7.388   1.163  0.3182 -1.1633  0.0864
15491SOL    HW247915   3.376   7.354   1.159  0.1355 -0.4897  0.8991
15492SOL     OW47916   0.849   0.758   2.582 -0.7829 -0.1570 -0.6151
15492SOL    HW147917   0.914   0.785   2.516 -1.8037  2.9053 -0.5110
15492SOL    HW247918   0.896   0.764   2.665 -0.6320  0.1361 -0.7171
15493SOL     OW47919   0.572   0.117   1.842  0.2058 -0.6655 -0.1411
15493SOL    HW147920   0.484   0.098   1.875 -0.6319  2.2084 -0.4590
15493SOL    HW247921   0.559   0.140   1.750  1.0080  1.2468  0.1660
15494SOL     OW47922   5.628   3.098   5.103 -0.0215 -0.2857  0.4959
15494SOL    HW147923   5.588   3.085   5.016  1.2425  0.3717 -0.2181
15494SOL    HW247924   5.660   3.188   5.101  2.5152 -1.1012  0.5610
15495SOL     OW47925   7.953   4.102  10.231  0.3962  0.3938  0.5590
15495SOL    HW147926   7.897   4.069  10.161  1.0946 -2.7401  1.3390
15495SOL    HW247927   7.893   4.122  10.303 -0.1055  1.5190 -0.1475
15496SOL     OW47928   0.483   4.624   7.145  0.3407  0.2239 -0.4316
15496SOL    HW147929   0.483   4.556   7.077  0.3690  1.0160 -1.2349
15496SOL    HW247930   0.468   4.576   7.226 -0.7872 -0.6342 -1.1174
15497SOL     OW47931   1.006   7.403   5.526 -0.2285 -0.4649 -0.0763
15497SOL    HW147932   0.984   7.315   5.494  0.5399  0.1628 -2.5579
15497SOL    HW247933   1.016   7.455   5.447 -1.6085  2.1452  1.3384
15498SOL     OW47934   2.912   6.442   6.441 -0.3309  0.1206 -0.3811
15498SOL    HW147935   2.818   6.432   6.433 -0.3499 -0.5511  0.5904
15498SOL    HW247936   2.938   6.380   6.509  0.4363  2.2613  1.3882
15499SOL     OW47937   3.699   5.763   8.919  0.2356 -0.6561  0.4025
15499SOL    HW147938   3.690   5.702   8.845  0.1731 -0.4686  0.2541
15499SOL    HW247939   3.732   5.844   8.880  0.2754 -0.5797  0.5918
15500SOL     OW47940   4.006   2.731   7.310  0.1132 -0.5370  0.2106
15500SOL    HW147941   4.030   2.669   7.378  3.1312 -1.0547 -1.1959
15500SOL    HW247942   3.928   2.693   7.269 -0.3272 -1.4164  1.7884
15501SOL     OW47943   0.746   2.133   7.370  0.6864 -0.6971 -0.0640
15501SOL    HW147944   0.787   2.053   7.404  1.9363  0.2884  0.8521
15501SOL    HW247945   0.794   2.204   7.413 -1.1820  0.5467  0.0584
15502SOL     OW47946   4.568   1.775   7.660 -0.3821 -0.1801  0.1034
15502SOL    HW147947   4.478   1.746   7.646 -1.2399  0.6713  3.0730
15502SOL    HW247948   4.568   1.866   7.630 -0.8936  0.2034  1.2175
15503SOL     OW47949   3.147   5.788  12.036  0.1707 -0.6548  0.9130
15503SOL    HW147950   3.177   5.714  11.984  2.2985  0.1552  0.9140
15503SOL    HW247951   3.177   5.770  12.125 -0.3461 -0.3556  1.1553
15504SOL     OW47952   4.586   7.263   1.339  1.0680 -0.2850  0.2271
15504SOL    HW147953   4.559   7.349   1.370  0.4842 -0.2040 -0.4787
15504SOL    HW247954   4.681   7.266   1.338  1.0405  0.6683 -0.6390
15505SOL     OW47955   7.423   3.383  10.373 -0.0492  0.0645 -0.6465
15505SOL    HW147956   7.503   3.392  10.322 -0.0351 -1.3371 -0.8943
15505SOL    HW247957   7.357   3.357  10.310  0.0059 -1.8370  0.0245
15506SOL     OW47958   6.607   6.218  10.796 -0.2873  0.1761 -0.1218
15506SOL    HW147959   6.521   6.176  10.798 -1.3963  2.3193  1.6975
15506SOL    HW247960   6.636   6.217  10.888  2.4828 -1.9498 -0.8561
15507SOL     OW47961   3.510   0.681  11.052 -0.8004  0.4006 -0.3990
15507SOL    HW147962   3.424   0.688  11.092 -1.9368 -0.5465 -2.5507
15507SOL    HW247963   3.497   0.706  10.961  1.5940  1.9942 -0.4034
15508SOL     OW47964   3.057   3.922   7.055  0.1536 -0.2001 -0.4646
15508SOL    HW147965   3.063   3.847   6.996  1.5438 -0.3634 -0.1633
15508SOL    HW247966   3.107   3.991   7.011  1.0136 -0.2529  0.3827
15509SOL     OW47967   7.375   3.042  10.805  0.2188 -0.1486  0.1378
15509SOL    HW147968   7.469   3.044  10.788  0.1797  1.8030 -0.1259
15509SOL    HW247969   7.366   3.084  10.891 -0.5049  1.3469 -0.6227
15510SOL     OW47970   4.795   5.762   0.449  0.0876 -1.0360 -0.9209
15510SOL    HW147971   4.707   5.765   0.486  0.0632 -0.7960 -0.9988
15510SOL    HW247972   4.853   5.773   0.524  0.0558 -1.3606 -0.8467
15511SOL     OW47973   1.604   2.448   8.023  0.1942  0.3262 -0.0504
15511SOL    HW147974   1.630   2.427   8.113  0.8757  2.0211  0.1890
15511SOL    HW247975   1.676   2.416   7.969  0.0558 -0.1752  0.0595
15512SOL     OW47976   7.445   1.988   3.819  0.0897  0.2600 -0.3058
15512SOL    HW147977   7.540   1.979   3.827  0.1489 -0.9256 -1.8772
15512SOL    HW247978   7.420   1.922   3.754 -1.9332 -0.0565  0.7203
15513SOL     OW47979   2.811   4.524  11.056  0.5301 -0.0103 -0.4649
15513SOL    HW147980   2.880   4.491  11.000  0.3162 -0.3249 -0.5492
15513SOL    HW247981   2.740   4.547  10.996  0.1096 -0.8201 -0.2994
15514SOL     OW47982   6.248   6.535   6.372  0.0868 -0.1829 -0.6012
15514SOL    HW147983   6.230   6.615   6.421  1.7353  0.2393 -0.6488
15514SOL    HW247984   6.183   6.472   6.405  1.2539  0.0099  2.3322
15515SOL     OW47985   3.250   6.405   9.697 -0.1570 -0.1303  0.5043
15515SOL    HW147986   3.176   6.391   9.637  0.3414 -1.0538  0.0852
15515SOL    HW247987   3.250   6.327   9.753 -0.2664  0.4599  1.3506
15516SOL     OW47988   6.639   5.583   5.272 -0.1588  0.0512  0.4593
15516SOL    HW147989   6.602   5.508   5.318 -1.1021  0.5039  0.4531
15516SOL    HW247990   6.631   5.656   5.334 -0.3911  0.4154  0.0063
15517SOL     OW47991   7.051   6.631   5.411  0.4404 -0.5016  0.6223
15517SOL    HW147992   7.074   6.598   5.324  0.6852 -1.8419  1.1768
15517SOL    HW247993   6.981   6.573   5.440 -0.9144  1.0473  0.6089
15518SOL     OW47994   0.907   4.302   9.337 -0.0966 -0.0602 -0.0213
15518SOL    HW147995   0.952   4.305   9.253 -0.7820 -2.6395 -0.5585
15518SOL    HW247996   0.816   4.322   9.316 -0.3989 -1.3727 -0.0527
15519SOL     OW47997   7.145   6.379   7.998  0.4064  0.3574  0.8173
15519SOL    HW147998   7.211   6.309   7.999  2.4261  2.1394  0.8069
15519SOL    HW247999   7.129   6.395   7.905  1.2985  1.0776  0.7786
15520SOL     OW48000   5.324   7.898   7.605 -0.0750  0.1463  0.1759
15520SOL    HW148001   5.317   7.956   7.681  0.1227 -0.1230  0.4017
15520SOL    HW248002   5.306   7.954   7.530  0.3993  0.5662  0.3720
15521SOL     OW48003   0.440   3.378   5.060  0.1214 -0.4078 -0.6475
15521SOL    HW148004   0.442   3.304   5.120 -0.0615 -1.0386 -1.4058
15521SOL    HW248005   0.517   3.430   5.084  1.7966 -2.1932 -1.7645
15522SOL     OW48006   4.298   1.607   5.438 -0.2271  0.4829  0.0394
15522SOL    HW148007   4.342   1.678   5.393 -1.3396  1.4113  0.3642
15522SOL    HW248008   4.310   1.626   5.531  0.3528 -0.3369  0.1497
15523SOL     OW48009   1.725   3.500   7.429 -0.2901  0.0278 -0.6745
15523SOL    HW148010   1.762   3.545   7.505 -0.3387 -0.2752 -0.4709
15523SOL    HW248011   1.671   3.566   7.386  0.9010  0.6404 -1.2769
15524SOL     OW48012   0.457   6.462  11.273 -0.2902  0.1471  0.0243
15524SOL    HW148013   0.500   6.442  11.356 -0.1074 -1.9315 -0.5066
15524SOL    HW248014   0.526   6.449  11.207 -1.1530 -1.1285 -0.6663
15525SOL     OW48015   5.713   3.267   6.778  0.1205 -0.2661 -0.3410
15525SOL    HW148016   5.694   3.327   6.706  1.2914  0.4947 -0.0467
15525SOL    HW248017   5.798   3.297   6.812 -0.4870 -0.4815  1.4660
15526SOL     OW48018   6.530   5.992   6.395 -0.5123  0.3937  0.0567
15526SOL    HW148019   6.557   5.910   6.353 -0.1651 -0.5055  1.9280
15526SOL    HW248020   6.442   5.973   6.428  0.7941 -0.5223  3.4716
15527SOL     OW48021   2.682   1.693   3.942  0.6967 -0.4521 -0.2108
15527SOL    HW148022   2.657   1.704   4.034  2.3703 -0.4629  0.2810
15527SOL    HW248023   2.657   1.603   3.921 -0.4021 -0.2118 -0.0366
15528SOL     OW48024   7.242   5.785   0.599 -0.1434  0.1988  0.7437
15528SOL    HW148025   7.299   5.858   0.622  0.4924 -0.7445  2.3049
15528SOL    HW248026   7.155   5.813   0.626 -0.2288  1.0871 -0.3704
15529SOL     OW48027   3.862   7.028   2.668  0.2578 -0.0155  0.4371
15529SOL    HW148028   3.812   7.075   2.601 -1.0782 -0.2063  1.2654
15529SOL    HW248029   3.807   7.032   2.746  0.3798 -2.3858  0.7137
15530SOL     OW48030   7.194   1.545   5.066 -0.1497 -0.3298  0.9591
15530SOL    HW148031   7.159   1.610   5.006  0.9815 -0.4172  0.1710
15530SOL    HW248032   7.289   1.545   5.049 -0.1268 -2.2170  0.8938
15531SOL     OW48033   7.922   7.307   3.121  0.3119  0.0813  0.0785
15531SOL    HW148034   7.833   7.342   3.118 -0.6650 -2.1539  1.2679
15531SOL    HW248035   7.955   7.333   3.207  0.5460  0.2517 -0.0607
15532SOL     OW48036   7.895   6.262   4.902  0.4314 -0.4790 -0.2508
15532SOL    HW148037   7.977   6.226   4.868  0.8358 -0.8621  1.0694
15532SOL    HW248038   7.895   6.353   4.874  1.6793 -0.2776  0.3448
15533SOL     OW48039   1.668   4.146   9.887 -0.0370 -0.4132  0.1725
15533SOL    HW148040   1.691   4.183   9.802  2.0347  0.1879  0.9186
15533SOL    HW248041   1.579   4.175   9.904 -0.1377  0.2455 -1.3634
15534SOL     OW48042   5.352   4.060   3.301  0.1274 -0.8679  0.1991
15534SOL    HW148043   5.304   4.015   3.370  0.0709 -0.8063  0.2001
15534SOL    HW248044   5.375   4.145   3.340  0.5996 -1.0599  0.3468
15535SOL     OW48045   3.963   6.264   9.930 -0.0246  0.4475 -0.0600
15535SOL    HW148046   3.956   6.180   9.883  0.6293  0.0770  0.4798
15535SOL    HW248047   3.957   6.330   9.861 -3.4176  0.1078 -0.2272
15536SOL     OW48048   4.884   3.320  10.747 -0.0630  0.1999 -0.0540
15536SOL    HW148049   4.839   3.241  10.778 -0.1045  0.5533  0.8184
15536SOL    HW248050   4.819   3.365  10.693 -0.5915  0.4193  0.7329
15537SOL     OW48051   1.133   1.143  12.091 -0.2161 -0.1049 -0.2520
15537SOL    HW148052   1.193   1.170  12.021 -1.4168  1.5960 -0.6718
15537SOL    HW248053   1.125   1.220  12.147 -0.7746 -0.8349  0.7046
15538SOL     OW48054   5.647   2.175  10.374  0.0470  0.7623  0.1706
15538SOL    HW148055   5.558   2.186  10.340 -0.1877 -0.6617  0.2593
15538SOL    HW248056   5.641   2.098  10.431  1.0544  1.4334  1.2101
15539SOL     OW48057   7.345   1.910  11.969  0.1963 -0.3252 -0.3534
15539SOL    HW148058   7.345   1.835  11.909 -0.0279 -0.3247 -0.3559
15539SOL    HW248059   7.281   1.970  11.931  2.4343  1.2002 -1.9989
15540SOL     OW48060   1.509   2.836   6.050  0.3239  0.3496 -0.4923
15540SOL    HW148061   1.440   2.792   6.099  0.8632 -0.0674 -0.0911
15540SOL    HW248062   1.562   2.765   6.014  1.5848  0.6326  0.6924
15541SOL     OW48063   6.244   5.175   9.888  0.3184  0.3361  0.0166
15541SOL    HW148064   6.271   5.254   9.935  1.8201 -0.2485  0.2213
15541SOL    HW248065   6.184   5.130   9.948  1.1085  0.2995  0.8127
15542SOL     OW48066   1.864   4.077  11.633 -0.1161 -0.1162 -0.1905
15542SOL    HW148067   1.776   4.040  11.643  0.7179 -2.2796 -0.4179
15542SOL    HW248068   1.884   4.114  11.719 -0.9403 -0.3006  0.0942
15543SOL     OW48069   3.207   2.096   3.813 -0.1433  0.1164  0.5746
15543SOL    HW148070   3.163   2.169   3.769 -1.4904 -0.3662  1.0584
15543SOL    HW248071   3.299   2.120   3.814 -0.4223  1.2904 -0.2703
15544SOL     OW48072   2.305   3.249   6.943  0.0073  0.2194 -0.3073
15544SOL    HW148073   2.212   3.268   6.955  0.2010  1.5606 -0.7319
15544SOL    HW248074   2.309   3.199   6.861 -0.3352  0.1993 -0.3125
15545SOL     OW48075   4.895   2.886   2.136  0.5669  0.0628  0.3051
15545SOL    HW148076   4.849   2.862   2.056 -1.2223 -2.9842  2.0117
15545SOL    HW248077   4.830   2.935   2.187  0.5842 -0.6827  1.0740
15546SOL     OW48078   7.976   4.753  12.385  0.1452  0.8057 -0.1257
15546SOL    HW148079   8.056   4.786  12.342 -0.0467  1.0109 -0.3306
15546SOL    HW248080   7.910   4.754  12.316 -0.2496  1.4376  0.2506
15547SOL     OW48081   0.768   6.739   7.186 -0.1789  0.1496  0.5710
15547SOL    HW148082   0.700   6.796   7.223 -1.9121  0.1721 -2.2838
15547SOL    HW248083   0.722   6.658   7.165  1.3876 -0.9233  1.0967
15548SOL     OW48084   3.544   7.438   9.808 -0.6595 -0.4595 -0.1531
15548SOL    HW148085   3.612   7.445   9.741  0.1207  0.2237  0.6855
15548SOL    HW248086   3.480   7.378   9.771  1.0117 -2.1413 -0.4511
15549SOL     OW48087   7.931   6.192   6.838  0.1193 -0.4213 -0.2293
15549SOL    HW148088   7.846   6.201   6.882 -0.2271  0.2829 -1.0209
15549SOL    HW248089   7.991   6.166   6.908 -0.4442  0.5646  0.6492
15550SOL     OW48090   3.012   5.938  11.210 -0.2785 -0.0911  0.0833
15550SOL    HW148091   2.980   5.942  11.120  0.9532 -0.3194 -0.3900
15550SOL    HW248092   3.034   5.846  11.224 -1.1173 -0.1837  0.8716
15551SOL     OW48093   3.138   7.223   6.540 -0.2585  0.0652  0.4306
15551SOL    HW148094   3.168   7.219   6.631 -3.0949  0.3448  1.4997
15551SOL    HW248095   3.078   7.298   6.538  1.0945  1.2091 -2.1810
15552SOL     OW48096   1.923   1.156   5.724  0.1462  0.2968  0.4994
15552SOL    HW148097   1.980   1.153   5.647  0.5397 -0.6760  0.8076
15552SOL    HW248098   1.977   1.196   5.792  0.2772 -0.1246  0.6443
15553SOL     OW48099   3.376   6.860  11.102  0.2618 -0.7276  0.2633
15553SOL    HW148100   3.286   6.854  11.135 -0.3312 -1.5413 -1.3806
15553SOL    HW248101   3.428   6.886  11.178 -1.4027  0.0791  1.1840
15554SOL     OW48102   4.896   7.072   2.610  0.3948  0.2175 -0.2747
15554SOL    HW148103   4.949   7.031   2.541  2.0322  1.7850 -0.0306
15554SOL    HW248104   4.827   7.118   2.562  1.0924  0.6962 -0.8530
15555SOL     OW48105   3.646   3.053   9.468  0.0306 -0.3255  0.2120
15555SOL    HW148106   3.698   3.126   9.503  1.0793 -1.2386  0.6182
15555SOL    HW248107   3.710   2.982   9.457 -1.1291 -1.4627  0.6505
15556SOL     OW48108   5.440   5.315   4.655 -0.0792 -0.1704 -0.4393
15556SOL    HW148109   5.521   5.267   4.671 -0.3581 -0.0223  1.6716
15556SOL    HW248110   5.372   5.260   4.693 -0.6753  0.8178 -0.0339
15557SOL     OW48111   7.001   4.215   0.339  0.2879 -0.3549 -0.6642
15557SOL    HW148112   7.071   4.155   0.363  0.3493 -0.4766 -1.1418
15557SOL    HW248113   7.023   4.297   0.383 -1.1853 -1.3601  2.2631
15558SOL     OW48114   2.425   5.800   7.448 -0.0259 -0.0647 -0.3319
15558SOL    HW148115   2.394   5.824   7.535 -1.0696  0.1000 -0.7383
15558SOL    HW248116   2.509   5.757   7.463  0.9356  1.9837  0.5869
15559SOL     OW48117   7.036   1.870   9.667 -0.1433  0.0366  0.0422
15559SOL    HW148118   7.120   1.834   9.638 -0.3834  0.1077 -0.7849
15559SOL    HW248119   7.030   1.846   9.759 -0.2233 -1.9482 -0.4297
15560SOL     OW48120   3.849   3.027   4.349 -0.3807 -0.1325  0.3643
15560SOL    HW148121   3.790   2.997   4.281 -2.4676  2.0218  1.0941
15560SOL    HW248122   3.890   3.105   4.313  1.9624 -1.4601 -0.0370
15561SOL     OW48123   7.348   7.710  10.341 -0.4625  0.2654  0.8670
15561SOL    HW148124   7.380   7.635  10.290 -0.5663 -1.6474  3.4504
15561SOL    HW248125   7.330   7.777  10.275 -0.7916 -2.0904 -1.6253
15562SOL     OW48126   2.899   5.878  10.152 -0.0544  0.1670 -0.3756
15562SOL    HW148127   2.968   5.847  10.093 -0.2706 -0.1963 -0.4383
15562SOL    HW248128   2.920   5.970  10.166  0.0358  0.2463 -0.9805
15563SOL     OW48129   4.811   1.387   9.761 -0.1778 -0.1251 -0.2222
15563SOL    HW148130   4.874   1.459   9.755  0.6262 -0.8832 -1.3064
15563SOL    HW248131   4.761   1.393   9.679 -1.3352  0.2842  0.4933
15564SOL     OW48132   6.740   6.316   5.133  0.1963 -0.3170  0.4575
15564SOL    HW148133   6.647   6.335   5.135  0.4167  0.7737  1.3618
15564SOL    HW248134   6.761   6.307   5.040 -0.9318 -1.2844  0.2806
15565SOL     OW48135   7.009   7.505   9.507 -0.0163  0.0905 -0.0875
15565SOL    HW148136   6.924   7.473   9.476  1.1506 -0.7062 -2.7707
15565SOL    HW248137   7.009   7.484   9.600 -2.5954 -0.2018 -0.0651
15566SOL     OW48138   6.137   2.679  10.619  0.1965 -0.6463  0.4365
15566SOL    HW148139   6.126   2.596  10.665 -0.9415 -0.9998 -0.4103
15566SOL    HW248140   6.150   2.654  10.527 -1.1924  0.1035  0.0084
15567SOL     OW48141   3.555   6.254   4.211 -0.2481 -0.0025  0.1690
15567SOL    HW148142   3.496   6.195   4.164 -0.5544  0.2575  0.2279
15567SOL    HW248143   3.640   6.209   4.209 -0.0684  0.3528 -1.2942
15568SOL     OW48144   6.371   3.461   4.703  0.1532 -0.1096  0.0273
15568SOL    HW148145   6.302   3.401   4.732  0.4899 -0.2083  0.6375
15568SOL    HW248146   6.357   3.540   4.754  0.9276 -0.3869  0.6988
15569SOL     OW48147   1.501   2.080   8.854 -0.2626 -0.1088  0.0249
15569SOL    HW148148   1.552   2.032   8.919 -1.4700  1.1212  1.9919
15569SOL    HW248149   1.566   2.118   8.795  1.2209  1.8254  2.7164
15570SOL     OW48150   2.545   6.636  10.411  0.8687  0.0701  0.0348
15570SOL    HW148151   2.630   6.607  10.380  1.0209  1.0966 -0.5361
15570SOL    HW248152   2.483   6.603  10.347  0.9284  0.0941 -0.0344
15571SOL     OW48153   5.684   1.637   6.092  0.3019  0.0603  0.0467
15571SOL    HW148154   5.629   1.583   6.035  1.5759 -1.7101  0.4003
15571SOL    HW248155   5.685   1.590   6.175  0.4162  1.3473  0.7908
15572SOL     OW48156   6.226   4.100   2.507 -0.3526 -0.0508 -0.1494
15572SOL    HW148157   6.292   4.159   2.543 -0.8328  1.7613 -2.0094
15572SOL    HW248158   6.144   4.150   2.512 -0.7883 -0.5469 -1.7002
15573SOL     OW48159   4.728   1.106   0.400 -0.5748 -0.3330  0.0966
15573SOL    HW148160   4.743   1.135   0.310  1.5160  1.2104  0.8644
15573SOL    HW248161   4.687   1.181   0.443  1.0060  0.0109  1.0764
15574SOL     OW48162   5.105   3.156  11.933  0.1657  0.0187 -0.1562
15574SOL    HW148163   5.077   3.243  11.962  0.0178 -0.1192  0.1206
15574SOL    HW248164   5.159   3.123  12.004 -1.2681 -0.8589  0.5802
15575SOL     OW48165   7.347   5.793   8.502 -0.1541  0.4154 -0.8400
15575SOL    HW148166   7.363   5.778   8.409 -0.9799  1.1540 -1.1204
15575SOL    HW248167   7.405   5.732   8.547  1.8844  1.5441 -1.7917
15576SOL     OW48168   7.026   1.143   7.737  0.1694 -0.2044 -0.5625
15576SOL    HW148169   7.022   1.204   7.811 -1.0171 -0.6001 -0.2887
15576SOL    HW248170   6.935   1.134   7.708  0.3502 -1.6741 -0.7426
15577SOL     OW48171   4.931   0.511  11.713  0.5655  0.1393  0.0736
15577SOL    HW148172   5.018   0.536  11.746  0.7970 -0.6545  0.0802
15577SOL    HW248173   4.933   0.415  11.711 -0.1677  0.1293 -0.3188
15578SOL     OW48174   4.489   7.814   9.869 -0.2602  0.2432  0.1134
15578SOL    HW148175   4.466   7.737   9.922  0.3314  0.7540  1.1474
15578SOL    HW248176   4.405   7.850   9.842 -0.5479 -0.9571 -0.7053
15579SOL     OW48177   6.461   3.786   4.097 -0.6128 -0.0793 -0.2699
15579SOL    HW148178   6.388   3.839   4.130  0.4153  0.4709  1.2390
15579SOL    HW248179   6.494   3.834   4.022 -0.3102  0.9373  0.4950
15580SOL     OW48180   6.047   2.550   0.150 -0.1890 -0.1413  0.4774
15580SOL    HW148181   5.959   2.548   0.188  0.5329 -2.8594  2.2868
15580SOL    HW248182   6.059   2.462   0.114  1.4916  0.4463 -0.5033
15581SOL     OW48183   2.374   2.560   9.249 -0.0762  0.4272 -0.3783
15581SOL    HW148184   2.306   2.536   9.187 -0.1311 -0.1820 -0.0957
15581SOL    HW248185   2.421   2.478   9.266 -1.1308  0.1831  1.6628
15582SOL     OW48186   7.829   2.205   7.756 -0.2547  0.4180 -0.2610
15582SOL    HW148187   7.895   2.254   7.805 -0.7097  0.9186 -0.1418
15582SOL    HW248188   7.751   2.261   7.757 -0.8452 -0.3948  0.0534
15583SOL     OW48189   0.599   7.582   3.992  0.3745  0.5172  0.4881
15583SOL    HW148190   0.683   7.570   3.948  0.0920  0.5526 -0.0750
15583SOL    HW248191   0.594   7.511   4.055  0.5155  0.0907  0.0242
15584SOL     OW48192   0.902   7.185   2.293  0.0280 -0.8604  0.1385
15584SOL    HW148193   0.951   7.205   2.213 -0.0256 -0.0573  0.3002
15584SOL    HW248194   0.894   7.090   2.293  0.6722 -0.9203 -0.4320
15585SOL     OW48195   4.894   6.540   7.293  0.1312  0.6107 -0.5151
15585SOL    HW148196   4.865   6.449   7.296  1.5168  0.1117 -1.4208
15585SOL    HW248197   4.868   6.571   7.206 -2.2979  1.8309  0.5195
15586SOL     OW48198   6.210   1.570   6.460  0.2836  0.2466 -0.2400
15586SOL    HW148199   6.167   1.638   6.408 -1.5333 -0.3386  0.4233
15586SOL    HW248200   6.228   1.500   6.398  3.2287  1.6699 -1.1903
15587SOL     OW48201   7.793   3.216   7.057 -0.1707  0.2936  1.0384
15587SOL    HW148202   7.835   3.278   6.997  0.3422 -1.6230 -0.7101
15587SOL    HW248203   7.721   3.265   7.096 -1.0403  1.4668 -1.7955
15588SOL     OW48204   2.239   0.005   7.679  0.0533  0.3555  0.7842
15588SOL    HW148205   2.226  -0.050   7.757  0.0609  0.8825  1.1622
15588SOL    HW248206   2.332  -0.005   7.660 -0.5999 -3.0114 -1.6218
15589SOL     OW48207   2.006   5.676   2.685 -0.3545 -0.2692  0.1712
15589SOL    HW148208   2.045   5.708   2.603 -0.6117  0.2762  0.2618
15589SOL    HW248209   1.918   5.646   2.660 -0.0621 -1.0667  0.0570
15590SOL     OW48210   1.433   3.205  10.506 -0.1217  0.1441 -0.7609
15590SOL    HW148211   1.505   3.265  10.528  2.1792 -2.1816 -1.4058
15590SOL    HW248212   1.460   3.163  10.425 -1.8347 -1.4233 -0.5958
15591SOL     OW48213   5.549   0.445   1.596 -0.7659  0.0053  0.1886
15591SOL    HW148214   5.539   0.417   1.687  2.3877  0.6340  0.8297
15591SOL    HW248215   5.596   0.373   1.554 -0.9200  0.3444 -0.5746
15592SOL     OW48216   5.000   7.584   2.636  0.4910 -0.0497  0.0936
15592SOL    HW148217   5.014   7.560   2.545  1.3661 -1.2801  0.5242
15592SOL    HW248218   4.968   7.505   2.678 -1.7571  1.0114  0.4987
15593SOL     OW48219   4.538   2.527   1.585 -0.1810 -0.4047  0.0686
15593SOL    HW148220   4.511   2.480   1.664 -0.4259 -1.2016 -0.4787
15593SOL    HW248221   4.537   2.620   1.611 -0.6389 -0.6259  0.8840
15594SOL     OW48222   2.314   5.767   5.596  0.1078 -0.0552 -0.4195
15594SOL    HW148223   2.229   5.792   5.560 -0.5898  0.6461  1.5263
15594SOL    HW248224   2.342   5.844   5.646  0.4949 -1.2444  1.2943
15595SOL     OW48225   5.425   5.608   6.560 -0.2089  0.0307 -0.1916
15595SOL    HW148226   5.411   5.531   6.504 -0.8585 -0.0101  0.0213
15595SOL    HW248227   5.511   5.593   6.599  0.5739  0.3899 -1.7006
15596SOL     OW48228   1.399   5.447   1.839 -0.0498  0.2813  0.1435
15596SOL    HW148229   1.450   5.505   1.781 -1.8957  0.2003 -1.6388
15596SOL    HW248230   1.313   5.441   1.798 -1.5675  0.4135  3.0529
15597SOL     OW48231   3.043   7.812   7.425 -0.5595 -0.3585 -0.2718
15597SOL    HW148232   3.039   7.903   7.455 -2.3189 -0.5159  0.0926
15597SOL    HW248233   2.989   7.810   7.346  0.4380 -0.8617 -0.9588
15598SOL     OW48234   7.555   5.167   9.509  0.2988 -1.1220  0.5457
15598SOL    HW148235   7.620   5.120   9.458  0.5424 -0.9310  0.6789
15598SOL    HW248236   7.492   5.200   9.445 -0.9069 -3.1836  0.5856
15599SOL     OW48237   2.904   0.151   8.543  0.7774  0.2504 -0.1199
15599SOL    HW148238   2.929   0.239   8.569  1.0407  1.2498 -3.3367
15599SOL    HW248239   2.824   0.163   8.491 -0.4931 -1.7273  1.1914
15600SOL     OW48240   3.999   6.668   8.433 -0.3001 -0.1358  0.2456
15600SOL    HW148241   4.080   6.625   8.407  0.8400  1.2816  1.2559
15600SOL    HW248242   3.929   6.612   8.400  1.0462 -0.1166 -2.9078
15601SOL     OW48243   4.266   4.451   1.847  0.5370 -0.3359  0.0743
15601SOL    HW148244   4.269   4.362   1.881  0.1435  0.0182  1.0863
15601SOL    HW248245   4.238   4.504   1.922  1.4684  0.7401 -0.3149
15602SOL     OW48246   5.989   6.865  10.106 -0.6213  0.2244  0.5017
15602SOL    HW148247   6.001   6.947  10.057  0.4441  0.7086  1.5378
15602SOL    HW248248   6.075   6.823  10.103 -0.1344  0.8805  3.0012
15603SOL     OW48249   0.754   5.756  11.545 -0.1065 -0.0772 -0.2553
15603SOL    HW148250   0.765   5.753  11.450  0.3753 -1.8320 -0.1747
15603SOL    HW248251   0.843   5.751  11.580 -0.3636 -1.4028  0.2806
15604SOL     OW48252   2.827   3.001   0.875  0.1560 -0.4352 -0.3190
15604SOL    HW148253   2.768   2.927   0.867  0.2555 -0.4309 -1.1042
15604SOL    HW248254   2.906   2.976   0.828  0.5086 -0.1512  0.1028
15605SOL     OW48255   6.073   2.209  11.859  0.2094  0.4801  0.4243
15605SOL    HW148256   6.103   2.290  11.817  1.1910  0.7401  1.5893
15605SOL    HW248257   6.123   2.140  11.815  0.0390  0.5809  0.0624
15606SOL     OW48258   3.937   1.357  10.339  0.1508  0.5043 -0.0654
15606SOL    HW148259   3.905   1.341  10.428 -0.2426 -1.3865 -0.5032
15606SOL    HW248260   4.018   1.306  10.333 -0.4963 -0.4492 -1.1705
15607SOL     OW48261   5.658   1.119   1.013 -0.0473  0.4447 -0.9436
15607SOL    HW148262   5.683   1.210   1.029  0.7238  0.3503 -1.5735
15607SOL    HW248263   5.696   1.071   1.086  0.6487  0.4575 -1.2932
15608SOL     OW48264   3.985   6.667   7.798  0.8384  0.2737  0.0156
15608SOL    HW148265   4.017   6.732   7.860 -0.7728  0.5470  0.6143
15608SOL    HW248266   4.050   6.667   7.727  0.1509  3.6684 -0.7811
15609SOL     OW48267   0.073   6.597   5.388 -0.0422  0.6404 -0.0064
15609SOL    HW148268  -0.005   6.596   5.443 -0.3735 -0.0209 -0.4773
15609SOL    HW248269   0.047   6.646   5.310 -0.1336  0.0144 -0.3702
15610SOL     OW48270   4.547   0.453   8.532 -0.7640 -0.2488 -0.0425
15610SOL    HW148271   4.520   0.437   8.622  1.6907  1.8523  1.1877
15610SOL    HW248272   4.576   0.367   8.500 -0.5762 -0.8277  1.5866
15611SOL     OW48273   2.218   4.993   1.613 -0.5297 -0.0092  0.0258
15611SOL    HW148274   2.187   5.072   1.569 -0.5688 -0.4622 -0.7931
15611SOL    HW248275   2.251   4.938   1.542 -1.0341 -0.9679  0.5136
15612SOL     OW48276   1.973   0.817   7.261  0.1564  0.4382  0.2626
15612SOL    HW148277   1.958   0.812   7.355  1.1788 -0.7085  0.4002
15612SOL    HW248278   1.932   0.899   7.233 -2.6008 -0.5003  1.2213
15613SOL     OW48279   2.760   5.790   3.241 -0.7851 -0.2558  0.5364
15613SOL    HW148280   2.702   5.738   3.296 -2.2331 -1.8390 -2.2893
15613SOL    HW248281   2.729   5.880   3.253 -1.8211 -0.6975  1.3780
15614SOL     OW48282   2.136   7.837   8.379 -0.1102 -0.2183  0.1690
15614SOL    HW148283   2.096   7.774   8.439  0.3029  1.0977  1.9218
15614SOL    HW248284   2.073   7.847   8.308 -0.9482 -1.3109  0.7372
15615SOL     OW48285   0.230   0.967  10.094  0.0404  0.2841 -0.2331
15615SOL    HW148286   0.292   0.968  10.167 -0.0344  0.2402 -0.1698
15615SOL    HW248287   0.273   0.913  10.027 -0.4127 -0.6787  0.2337
15616SOL     OW48288   7.003   3.020   3.946 -0.0183 -0.8618  0.3748
15616SOL    HW148289   6.989   3.051   4.036  1.0299 -0.5006  0.4284
15616SOL    HW248290   6.924   3.046   3.899  0.7533  1.8242  0.4394
15617SOL     OW48291   6.347   4.931   6.393 -0.0537 -0.1532  0.4438
15617SOL    HW148292   6.399   4.941   6.313  0.3053  2.0473  0.9063
15617SOL    HW248293   6.409   4.900   6.459  0.4939  1.5276  0.7480
15618SOL     OW48294   5.730   4.585   9.808  0.0047  0.3032 -0.3026
15618SOL    HW148295   5.737   4.490   9.817  1.0589  0.3879 -0.1184
15618SOL    HW248296   5.655   4.598   9.750 -1.3084 -0.5750  1.1146
15619SOL     OW48297   0.182   7.902   6.558  0.5944  0.0627 -0.4967
15619SOL    HW148298   0.239   7.874   6.629  0.4527  0.8784 -0.0517
15619SOL    HW248299   0.117   7.958   6.599  0.6429  0.7292 -1.2870
15620SOL     OW48300   4.150   1.284   3.193 -0.0368  0.0861 -0.0151
15620SOL    HW148301   4.116   1.332   3.117 -1.4843  0.5650  0.8821
15620SOL    HW248302   4.130   1.341   3.268 -0.6984 -1.3476  0.9575
15621SOL     OW48303   5.501   2.912   3.468  0.4584  0.1258 -0.4584
15621SOL    HW148304   5.483   2.853   3.541  1.1022  0.9993  0.4344
15621SOL    HW248305   5.498   2.999   3.506  0.8738  0.6003 -1.4672
15622SOL     OW48306   0.261   7.344   8.052  0.1180  0.0270 -0.3808
15622SOL    HW148307   0.213   7.280   8.104 -1.3222 -0.0805 -1.7677
15622SOL    HW248308   0.335   7.296   8.015 -0.1095 -0.4509 -0.2091
15623SOL     OW48309   6.552   6.203   7.391  0.3903  0.0099  0.2408
15623SOL    HW148310   6.643   6.226   7.406  0.7365  0.1934 -1.7834
15623SOL    HW248311   6.555   6.134   7.325 -0.9173 -0.7970  0.9722
15624SOL     OW48312   0.750   4.628   4.820 -0.0386  0.2579 -0.4864
15624SOL    HW148313   0.799   4.548   4.835  0.7795  1.1490  2.1950
15624SOL    HW248314   0.665   4.599   4.788 -0.1494 -1.7965  1.4493
15625SOL     OW48315   1.268   3.151   6.325 -0.3175  0.1450  0.3453
15625SOL    HW148316   1.213   3.093   6.272 -3.1239  2.1265  0.8367
15625SOL    HW248317   1.346   3.167   6.272 -1.5411 -0.5217 -1.7467
15626SOL     OW48318   5.289   4.047   2.295 -0.4443 -0.2621  0.4500
15626SOL    HW148319   5.228   4.108   2.253 -0.9205 -0.5844  0.6645
15626SOL    HW248320   5.251   4.030   2.381  1.4654  1.8457  1.8157
15627SOL     OW48321   0.190   2.572  10.401  0.3624  0.1446 -0.1686
15627SOL    HW148322   0.233   2.640  10.350 -1.0619  0.6868 -0.7163
15627SOL    HW248323   0.141   2.620  10.468  0.2618 -0.4079  0.1590
15628SOL     OW48324   4.890   5.466   7.811 -0.9625 -0.1449 -0.2269
15628SOL    HW148325   4.918   5.553   7.782 -1.7933  0.4036  0.5517
15628SOL    HW248326   4.957   5.439   7.873 -1.0862  0.2830  0.1025
15629SOL     OW48327   5.293   7.004  11.533 -0.3051 -0.1263  0.3464
15629SOL    HW148328   5.297   6.988  11.628 -1.6878 -3.0310  0.0200
15629SOL    HW248329   5.200   6.992  11.511  0.3455 -2.0069 -1.6841
15630SOL     OW48330   2.322   7.392   4.168 -0.0870  0.4577  0.2795
15630SOL    HW148331   2.340   7.383   4.262 -0.5817  0.4071  0.3723
15630SOL    HW248332   2.227   7.382   4.161  0.0742 -0.7850 -0.3701
15631SOL     OW48333   6.927   6.036   9.298 -0.7862  0.1974 -0.0498
15631SOL    HW148334   6.922   6.104   9.231  0.8346  0.2358 -0.1733
15631SOL    HW248335   6.908   6.082   9.380  1.0809  1.0290 -0.0248
15632SOL     OW48336   0.334   6.292   5.143 -0.0479  0.1759 -0.1672
15632SOL    HW148337   0.243   6.318   5.161  0.1671  2.7150 -2.1881
15632SOL    HW248338   0.330   6.242   5.062  0.2385 -0.8528  0.4426
15633SOL     OW48339   4.986   7.086   3.696  0.0725  0.1967  0.1000
15633SOL    HW148340   5.071   7.042   3.693  0.2726  0.4432  1.5464
15633SOL    HW248341   4.924   7.021   3.662  0.6618 -0.4451  0.2419
15634SOL     OW48342   1.369   4.711   8.678  0.0819 -0.3575 -0.3680
15634SOL    HW148343   1.353   4.801   8.649  1.2475 -0.0912 -0.2112
15634SOL    HW248344   1.324   4.656   8.613  2.4691  0.2095 -2.6615
15635SOL     OW48345   2.508   3.740   8.991  0.2158  0.0751 -0.5267
15635SOL    HW148346   2.427   3.729   9.041  0.4957 -0.4356 -0.1692
15635SOL    HW248347   2.550   3.654   8.995  1.4895  0.7097  0.5592
15636SOL     OW48348   3.191   4.644   5.533  0.0749  0.6346 -0.1031
15636SOL    HW148349   3.251   4.601   5.594 -0.3456  0.6481  0.3326
15636SOL    HW248350   3.115   4.585   5.529  0.0045  0.7449 -0.4412
15637SOL     OW48351   5.852   2.307   9.358  0.2530  0.6004 -0.5269
15637SOL    HW148352   5.812   2.271   9.437  0.0152  0.7314 -0.5852
15637SOL    HW248353   5.839   2.239   9.292 -1.5375  1.3642 -1.0332
15638SOL     OW48354   6.678   3.908  12.247  0.6697 -0.2692  0.4093
15638SOL    HW148355   6.619   3.917  12.173  1.4429 -0.8270 -0.3025
15638SOL    HW248356   6.727   3.991  12.249 -0.0473  0.1583  0.9475
15639SOL     OW48357   0.735   3.618   0.804  0.6652 -0.0084 -0.0434
15639SOL    HW148358   0.743   3.645   0.895  2.9805  2.0226 -0.7307
15639SOL    HW248359   0.658   3.664   0.771  0.2501 -0.1739  0.6780
15640SOL     OW48360   7.214   6.566   9.297  0.0781 -0.1348  0.2855
15640SOL    HW148361   7.159   6.618   9.355  1.4479  0.8853  0.7269
15640SOL    HW248362   7.290   6.621   9.280  1.2253 -1.6974  0.1170
15641SOL     OW48363   7.821   4.614   7.598  0.2744 -0.1345 -0.3198
15641SOL    HW148364   7.736   4.578   7.573  0.4823 -0.2628 -0.8574
15641SOL    HW248365   7.884   4.572   7.539  0.8151 -0.5963  0.5500
15642SOL     OW48366   6.156   2.493   5.721 -0.5965  0.0722  0.1805
15642SOL    HW148367   6.078   2.515   5.772 -0.5851  1.1249 -0.2386
15642SOL    HW248368   6.126   2.425   5.661 -1.0237  0.0058  0.4576
15643SOL     OW48369   4.547   7.294   2.037  0.4901  0.2904  0.6490
15643SOL    HW148370   4.501   7.336   1.965  0.8676  0.6784  0.6306
15643SOL    HW248371   4.611   7.237   1.995  0.1416 -0.1295  0.6761
15644SOL     OW48372   7.859   7.175   0.016  0.5957  0.5690 -0.0240
15644SOL    HW148373   7.909   7.251  -0.014  0.6828  0.7052  0.4576
15644SOL    HW248374   7.796   7.211   0.080  0.7885  0.2132  0.3720
15645SOL     OW48375   0.175   2.086   6.228 -0.3027 -0.8715 -0.0566
15645SOL    HW148376   0.250   2.135   6.194  1.1524 -2.4424  0.7248
15645SOL    HW248377   0.167   2.115   6.318  1.1879 -2.6329  0.7183
15646SOL     OW48378   0.114   7.088   9.372  0.1876  0.1850 -0.1444
15646SOL    HW148379   0.064   7.115   9.450  1.0465  0.5782  0.2888
15646SOL    HW248380   0.076   7.139   9.301  0.5427  1.1500  0.3348
15647SOL     OW48381   3.723   0.521   3.050 -0.7628  0.1687 -0.1858
15647SOL    HW148382   3.702   0.434   3.016  0.1193  0.0847 -0.5384
15647SOL    HW248383   3.685   0.522   3.138  2.2335 -1.9205  1.3065
15648SOL     OW48384   1.979   2.119   9.414 -1.0048 -0.6221 -0.0130
15648SOL    HW148385   2.047   2.060   9.382  0.1294  0.5066  0.2033
15648SOL    HW248386   2.014   2.207   9.396 -2.3423 -0.0084  0.2594
15649SOL     OW48387   4.462   5.677   9.493  0.6683 -0.3325  0.3747
15649SOL    HW148388   4.392   5.742   9.499 -0.6885 -1.4826 -1.7736
15649SOL    HW248389   4.418   5.593   9.505  1.6224 -1.0940 -1.0875
15650SOL     OW48390   4.102   6.700   5.450 -0.2586  0.1556 -0.9205
15650SOL    HW148391   4.104   6.671   5.359  1.4000 -0.8534 -0.6172
15650SOL    HW248392   4.014   6.677   5.480 -1.3035  1.6967 -2.5810
15651SOL     OW48393   0.735   0.542   5.785  0.0213  0.6151 -0.1665
15651SOL    HW148394   0.694   0.607   5.728 -0.1220  1.4086  0.8250
15651SOL    HW248395   0.791   0.593   5.843  0.5636 -0.2367  0.0741
15652SOL     OW48396   4.798   1.853   2.042  0.3176 -1.1361 -0.3894
15652SOL    HW148397   4.760   1.792   2.105 -2.6054  0.4119 -0.5265
15652SOL    HW248398   4.893   1.842   2.053 -0.0782 -4.1177  1.0635
15653SOL     OW48399   5.376   1.036   6.584  0.0602  0.7655  0.1543
15653SOL    HW148400   5.330   1.111   6.546 -0.6927  0.4770  0.4930
15653SOL    HW248401   5.463   1.039   6.543  0.7064  2.8944  1.5207
15654SOL     OW48402   0.098   7.420   1.488 -0.2341 -0.4574 -0.1995
15654SOL    HW148403   0.192   7.427   1.504 -0.2677 -0.4006 -0.0284
15654SOL    HW248404   0.058   7.467   1.561 -0.4161 -0.9679  0.0338
15655SOL     OW48405   1.959   0.650   6.960 -0.0314  0.1046 -0.1342
15655SOL    HW148406   1.907   0.588   6.908 -0.2463  0.4855 -0.3743
15655SOL    HW248407   1.932   0.634   7.050  0.0339 -0.2676 -0.1776
15656SOL     OW48408   5.984   0.412   8.805  0.1413  0.6127  0.3394
15656SOL    HW148409   6.064   0.373   8.770 -0.7870  0.0337 -1.2161
15656SOL    HW248410   5.963   0.483   8.745 -2.2664 -1.2913 -1.2617
15657SOL     OW48411   6.193   4.382   5.474 -0.0876 -0.4316 -0.3224
15657SOL    HW148412   6.273   4.423   5.507 -0.1427  0.1330 -0.8822
15657SOL    HW248413   6.214   4.355   5.384 -1.3048  2.1161 -1.4686
15658SOL     OW48414   1.366   5.054   4.244 -0.2035  0.0714 -0.5180
15658SOL    HW148415   1.384   4.960   4.255  0.8405  0.1591 -1.3197
15658SOL    HW248416   1.279   5.057   4.206 -0.9711 -0.4882  1.0769
15659SOL     OW48417   7.672   3.937   7.492 -0.2700  0.0242 -0.0019
15659SOL    HW148418   7.686   4.031   7.502  1.3705 -0.1865 -0.1313
15659SOL    HW248419   7.581   3.930   7.464  0.0400  1.6705 -1.6083
15660SOL     OW48420   6.377   5.297  10.204  0.7155 -0.5462 -0.2196
15660SOL    HW148421   6.388   5.346  10.122 -3.5486 -0.5006 -1.0211
15660SOL    HW248422   6.337   5.359  10.264  0.1738 -1.6149  0.5655
15661SOL     OW48423   5.410   7.462   9.061  0.3847  0.1821  0.2147
15661SOL    HW148424   5.426   7.399   9.132  1.8952 -0.9798 -1.0828
15661SOL    HW248425   5.334   7.427   9.015 -0.1325  0.5238  0.8037
15662SOL     OW48426   2.319   4.924   8.692 -0.4775 -0.8790 -0.2265
15662SOL    HW148427   2.410   4.951   8.681 -0.6353  0.0818  0.6709
15662SOL    HW248428   2.276   4.950   8.611 -0.8211  2.5624  0.9214
15663SOL     OW48429   5.515   5.485   8.854  0.3900  0.1299  0.0904
15663SOL    HW148430   5.551   5.482   8.765  0.8222  0.1243  0.2616
15663SOL    HW248431   5.580   5.438   8.907  0.4688  0.7197  0.5234
15664SOL     OW48432   7.739   7.332   9.391  0.4759  0.6261  0.1239
15664SOL    HW148433   7.698   7.402   9.340  2.0154  1.3505 -0.1698
15664SOL    HW248434   7.741   7.257   9.331 -0.9406  0.3676  0.3538
15665SOL     OW48435   1.596   4.172   0.614 -0.2372 -0.0396 -0.0668
15665SOL    HW148436   1.682   4.212   0.626 -0.4648  1.2891 -2.3577
15665SOL    HW248437   1.551   4.189   0.697  0.5965  2.2143  0.0021
15666SOL     OW48438   6.279   4.122  11.643  0.1153  0.3036 -0.0186
15666SOL    HW148439   6.241   4.056  11.585 -0.1478  0.6500 -0.2428
15666SOL    HW248440   6.319   4.186  11.583  1.8291 -0.4962  0.2059
15667SOL     OW48441   1.112   2.796   7.046 -0.0079  0.7544  1.0356
15667SOL    HW148442   1.167   2.814   6.970 -0.9689  2.3669  0.6739
15667SOL    HW248443   1.173   2.789   7.120  0.8696 -0.0365  0.2560
15668SOL     OW48444   5.154   6.471   7.363  0.0089  0.2694  0.3962
15668SOL    HW148445   5.063   6.478   7.334  0.3589  1.1687 -0.5276
15668SOL    HW248446   5.198   6.545   7.322  1.5240 -1.1144 -0.6046
15669SOL     OW48447   0.227   7.685   9.494 -0.0457  0.0995 -0.4971
15669SOL    HW148448   0.253   7.600   9.458 -0.5497 -0.0607 -0.4805
15669SOL    HW248449   0.192   7.664   9.581 -0.9744  0.2287 -0.8391
15670SOL     OW48450   7.822   2.176   6.876  0.6598 -0.1041 -0.2059
15670SOL    HW148451   7.802   2.087   6.848 -0.5760  0.4193 -1.0567
15670SOL    HW248452   7.865   2.165   6.961  1.6429 -1.5571 -0.8608
15671SOL     OW48453   1.643   0.716  10.192 -0.4565  0.4053  0.5924
15671SOL    HW148454   1.594   0.739  10.272 -0.7842  0.0194  0.5103
15671SOL    HW248455   1.609   0.629  10.169  2.4485 -1.3669  2.3014
15672SOL     OW48456   7.362   0.448   2.660 -0.4125 -0.4080  0.6006
15672SOL    HW148457   7.273   0.430   2.689 -0.7768 -1.0792 -0.8330
15672SOL    HW248458   7.416   0.436   2.738 -1.4592 -0.9422  1.2677
15673SOL     OW48459   0.885   4.211   5.511 -0.3379 -0.3968  0.3740
15673SOL    HW148460   0.900   4.118   5.528 -2.0202 -0.9131 -0.7057
15673SOL    HW248461   0.972   4.251   5.513  0.2609 -1.6670  2.5535
15674SOL     OW48462   2.761   3.676   8.463  0.1707 -0.1540 -0.2917
15674SOL    HW148463   2.792   3.764   8.486  2.4145 -0.7349 -0.8274
15674SOL    HW248464   2.786   3.666   8.371 -1.1241 -0.9312 -0.5760
15675SOL     OW48465   6.406   3.885   1.955 -0.4128  0.1719  0.0968
15675SOL    HW148466   6.454   3.846   2.027 -0.5049  2.1925  1.3409
15675SOL    HW248467   6.315   3.887   1.984 -0.8288 -0.9368 -1.0111
15676SOL     OW48468   4.971   2.560   4.384 -0.0197 -0.2985 -0.0281
15676SOL    HW148469   4.990   2.602   4.300 -0.7984  1.2015  0.5078
15676SOL    HW248470   4.955   2.633   4.443 -0.6415 -1.3684  1.1508
15677SOL     OW48471   4.023   6.578   8.719 -0.3283 -0.0033 -0.5143
15677SOL    HW148472   4.017   6.590   8.625 -1.3375 -2.3293 -0.8037
15677SOL    HW248473   4.072   6.496   8.731  1.9925  1.4665  1.1038
15678SOL     OW48474   7.856   5.778   8.113 -0.3156 -0.2926  0.1641
15678SOL    HW148475   7.889   5.699   8.154 -1.5305 -1.2254 -0.5867
15678SOL    HW248476   7.788   5.810   8.173 -0.4609 -0.3429  0.0281
15679SOL     OW48477   3.097   2.354   9.982  0.0914 -0.0308  0.3617
15679SOL    HW148478   3.071   2.433  10.029  0.2448  0.3897 -0.2328
15679SOL    HW248479   3.170   2.383   9.926  0.5646 -0.7417  0.6009
15680SOL     OW48480   7.440   7.464   9.627  0.0698  0.1963 -0.0846
15680SOL    HW148481   7.459   7.557   9.639 -1.2799  0.4523  0.2746
15680SOL    HW248482   7.368   7.447   9.688  0.5996 -1.1980  0.1890
15681SOL     OW48483   3.940   6.356   7.954 -0.3258 -1.0077  0.3489
15681SOL    HW148484   3.977   6.435   7.993  0.9294 -1.6075  0.4030
15681SOL    HW248485   3.846   6.365   7.969 -0.0950 -0.0837  1.3904
15682SOL     OW48486   1.207   3.146   3.650 -0.1640 -0.7091 -0.1927
15682SOL    HW148487   1.182   3.234   3.679  2.7976  0.3980 -0.6549
15682SOL    HW248488   1.226   3.155   3.557 -0.6959 -2.1150 -0.4761
15683SOL     OW48489   2.403   6.406   3.549  0.4178 -0.1052  0.3782
15683SOL    HW148490   2.465   6.361   3.606  1.0614  1.0490  0.6225
15683SOL    HW248491   2.407   6.358   3.466  3.2193  1.1318 -0.3084
15684SOL     OW48492   7.341   7.263   4.574  0.2344 -0.4233 -0.3846
15684SOL    HW148493   7.286   7.265   4.653  2.1098 -0.1956  0.9864
15684SOL    HW248494   7.280   7.280   4.502 -0.9988  3.7774  1.3489
15685SOL     OW48495   0.638   1.559  11.352  0.0848 -0.2255 -0.5808
15685SOL    HW148496   0.575   1.603  11.410 -0.1824 -1.7625  0.3519
15685SOL    HW248497   0.724   1.583  11.387 -0.0013  0.9027 -1.1192
15686SOL     OW48498   0.961   3.096   3.911  0.2214 -0.6977 -0.0546
15686SOL    HW148499   1.057   3.094   3.915  0.2383 -2.4362 -0.5421
15686SOL    HW248500   0.938   3.021   3.856 -1.5075 -1.6516  1.8515
15687SOL     OW48501   6.817   3.091  11.080 -0.2249  0.4087 -0.4615
15687SOL    HW148502   6.796   3.071  11.171 -0.5341  0.5255 -0.5068
15687SOL    HW248503   6.748   3.049  11.030 -0.7124  1.3297 -0.5775
15688SOL     OW48504   1.481   4.816   6.308 -0.6448  0.2336  0.2534
15688SOL    HW148505   1.496   4.769   6.390 -0.9895  1.2238  0.8891
15688SOL    HW248506   1.527   4.763   6.242  0.4591 -0.0594  1.2213
15689SOL     OW48507   2.900   4.939   4.328  0.3793 -0.1881 -0.3079
15689SOL    HW148508   2.992   4.931   4.304  0.8590  1.7529  0.7009
15689SOL    HW248509   2.901   4.974   4.416 -1.3320  1.0009 -0.7169
15690SOL     OW48510   1.261   4.833   9.806  0.2474 -0.2963  0.0364
15690SOL    HW148511   1.316   4.909   9.825 -0.0793  0.1281 -0.6931
15690SOL    HW248512   1.257   4.786   9.889  0.5756  0.4019  0.4609
15691SOL     OW48513   5.914   0.124   0.108  0.8089 -0.1993  0.0813
15691SOL    HW148514   5.890   0.149   0.019 -0.3816  2.0855  0.9535
15691SOL    HW248515   5.929   0.208   0.153  3.4685 -1.3145  1.5155
15692SOL     OW48516   1.343   5.910   6.534  0.1591  0.1706 -0.1599
15692SOL    HW148517   1.285   5.916   6.610  1.7797 -0.2764  1.1702
15692SOL    HW248518   1.418   5.860   6.565  0.3666 -1.0412 -2.4127
15693SOL     OW48519   3.587   7.838   4.426 -0.3743 -0.1402 -0.2870
15693SOL    HW148520   3.541   7.768   4.472  0.4621 -0.1384  0.5795
15693SOL    HW248521   3.558   7.829   4.335 -2.7746  0.4213  0.3410
15694SOL     OW48522   2.968   1.653  10.052 -0.2543 -0.3716  0.7468
15694SOL    HW148523   2.914   1.731  10.069 -1.1251 -0.8513  0.2621
15694SOL    HW248524   2.927   1.584  10.103 -1.2879 -1.1932 -1.0781
15695SOL     OW48525   3.896   1.599   2.498  0.2551 -0.8506 -0.0488
15695SOL    HW148526   3.873   1.656   2.424  1.1171  1.6356  1.4975
15695SOL    HW248527   3.895   1.657   2.574  1.3463 -2.9017  1.6126
15696SOL     OW48528   0.160   5.834   3.583 -0.6765 -0.5190 -0.5902
15696SOL    HW148529   0.078   5.824   3.632 -0.3305 -1.1441 -0.1322
15696SOL    HW248530   0.226   5.849   3.650 -0.6848  2.0084 -1.0367
15697SOL     OW48531   3.696   1.356   6.186  0.4800  0.3695 -0.3556
15697SOL    HW148532   3.732   1.412   6.255  0.4166  0.3737 -0.3262
15697SOL    HW248533   3.648   1.416   6.129  0.4889  0.3581 -0.3750
15698SOL     OW48534   3.219   0.636   9.329 -0.1406 -0.2970  0.3117
15698SOL    HW148535   3.228   0.544   9.302 -1.1418  0.1165 -1.5914
15698SOL    HW248536   3.148   0.670   9.275  1.5224  2.1372 -0.5025
15699SOL     OW48537   5.944   5.583  12.273  0.1261 -0.4574 -0.1818
15699SOL    HW148538   5.879   5.525  12.314  0.3737 -0.3300  0.3989
15699SOL    HW248539   5.990   5.623  12.347 -0.4975  1.0243 -0.5610
15700SOL     OW48540   1.595   2.529   2.676 -0.2567 -0.4859  0.5114
15700SOL    HW148541   1.548   2.598   2.628 -0.2468 -0.6535  0.2623
15700SOL    HW248542   1.657   2.494   2.612 -0.3808 -0.8436  0.5888
15701SOL     OW48543   4.414   6.866   2.053 -0.7686 -0.3330  0.0035
15701SOL    HW148544   4.321   6.880   2.034 -0.4004 -0.0772 -1.6932
15701SOL    HW248545   4.436   6.785   2.008 -0.8962 -2.2841  3.1029
15702SOL     OW48546   3.569   1.085   3.587 -0.7187  0.1819 -0.2241
15702SOL    HW148547   3.538   1.147   3.520  0.7623  0.7648 -0.3972
15702SOL    HW248548   3.660   1.069   3.565 -0.0250  0.8086  1.9595
15703SOL     OW48549   1.772   1.099  11.623  0.0718  0.0560  0.4984
15703SOL    HW148550   1.747   1.031  11.560 -1.2933  2.3743 -1.6360
15703SOL    HW248551   1.836   1.152  11.577 -1.0975  1.9266  0.9181
15704SOL     OW48552   4.233   2.812   7.193  0.1142  0.4973  0.0336
15704SOL    HW148553   4.141   2.797   7.217  0.6705 -1.5218  1.1746
15704SOL    HW248554   4.256   2.895   7.234 -0.8797  0.4321  0.7632
15705SOL     OW48555   4.322   4.035   9.607 -0.1924 -0.2584  0.2786
15705SOL    HW148556   4.304   3.972   9.538  0.9017  0.2031 -0.4570
15705SOL    HW248557   4.417   4.048   9.604 -0.4272  1.7613  0.0853
15706SOL     OW48558   5.842   4.006   3.538 -0.3423 -0.0050  0.3576
15706SOL    HW148559   5.761   3.959   3.518 -1.3620  1.7559  0.1486
15706SOL    HW248560   5.834   4.032   3.630 -0.6732  1.3404 -0.0255
15707SOL     OW48561   6.455   3.062   4.042  0.2195  0.5884 -0.2435
15707SOL    HW148562   6.489   3.016   4.119 -0.6467 -2.2741 -1.4202
15707SOL    HW248563   6.364   3.083   4.064  0.1185  0.2116 -0.2912
15708SOL     OW48564   2.095   1.572   6.644  0.3189 -0.1872 -0.3825
15708SOL    HW148565   2.055   1.522   6.715 -2.4875  0.0795 -1.6319
15708SOL    HW248566   2.188   1.549   6.648  0.1625 -0.6918  2.8745
15709SOL     OW48567   5.945   4.519   2.339 -0.5714  1.0198  0.5907
15709SOL    HW148568   5.896   4.442   2.309 -1.6990  1.0466  2.2753
15709SOL    HW248569   5.984   4.554   2.259  0.6289 -1.7116 -0.1456
15710SOL     OW48570   5.103   7.029   5.185 -0.6539  0.1913  0.3310
15710SOL    HW148571   5.135   6.948   5.226  0.6503 -0.4282 -1.7644
15710SOL    HW248572   5.049   6.999   5.113 -0.6334  1.2056 -0.1138
15711SOL     OW48573   2.989   5.879   0.563  0.0983  0.7063 -0.4477
15711SOL    HW148574   3.031   5.951   0.610 -0.0120  0.7119 -0.3570
15711SOL    HW248575   3.062   5.825   0.530  0.1834  0.9138 -0.6024
15712SOL     OW48576   1.873   3.442  11.287  0.6988 -0.0009 -0.0074
15712SOL    HW148577   1.843   3.385  11.216  0.1667 -1.8602  1.6220
15712SOL    HW248578   1.797   3.496  11.309  1.4681  2.1786 -2.1844
15713SOL     OW48579   6.414   1.466   3.535 -0.4694  0.2933  0.2780
15713SOL    HW148580   6.383   1.397   3.594 -1.0598  0.8458  0.6345
15713SOL    HW248581   6.471   1.421   3.473 -0.6670 -0.4760  0.6402
15714SOL     OW48582   7.548   6.072   4.595 -0.1330  0.9644 -0.3426
15714SOL    HW148583   7.508   6.148   4.638  1.1826  1.8595 -0.6452
15714SOL    HW248584   7.634   6.103   4.567  1.6451 -1.4237  1.9849
15715SOL     OW48585   7.570   4.544   7.027  0.6167  0.1998  0.1130
15715SOL    HW148586   7.655   4.542   6.983  0.4802 -1.1349 -0.1076
15715SOL    HW248587   7.561   4.635   7.056  0.9689  1.0169 -2.1052
15716SOL     OW48588   0.913   7.114  10.388 -0.1512  0.3611  0.1969
15716SOL    HW148589   0.820   7.125  10.367 -0.6469 -1.9652  0.8965
15716SOL    HW248590   0.940   7.199  10.422 -1.7220  1.4056 -1.0232
15717SOL     OW48591   7.224   7.202  11.424  0.4547  0.3596 -0.3671
15717SOL    HW148592   7.208   7.265  11.354  0.3172  1.2856  0.4713
15717SOL    HW248593   7.159   7.223  11.491  1.2070  0.1540  0.4586
15718SOL     OW48594   3.863   6.866   9.534 -0.3811  0.5551 -0.4414
15718SOL    HW148595   3.775   6.896   9.511 -0.6719  0.2667  0.2593
15718SOL    HW248596   3.921   6.936   9.504 -1.2407  3.8834  4.5067
15719SOL     OW48597   2.513   3.770   0.434 -0.0789  0.0696  0.3962
15719SOL    HW148598   2.521   3.739   0.524 -0.6873 -2.2477 -0.2877
15719SOL    HW248599   2.546   3.698   0.381  1.0492  1.7117 -1.2531
15720SOL     OW48600   4.970   1.208   0.993 -0.1078  0.0517 -0.1137
15720SOL    HW148601   4.969   1.146   0.920 -0.7184  1.0521 -0.9865
15720SOL    HW248602   5.062   1.234   1.002 -0.1285  0.4643 -1.0134
15721SOL     OW48603   2.891   1.961  10.591  0.0345  0.3333  0.5303
15721SOL    HW148604   2.819   2.003  10.638 -1.5337 -1.8098  0.1972
15721SOL    HW248605   2.970   1.988  10.638 -1.3244 -0.4007  3.4357
15722SOL     OW48606   5.299   6.173  11.487  0.1979  0.5444 -0.4756
15722SOL    HW148607   5.307   6.209  11.575  0.5667 -1.8777  0.5441
15722SOL    HW248608   5.234   6.104  11.494  2.8231 -2.2099 -1.1459
15723SOL     OW48609   7.329   2.323   7.050  0.2850  0.0922 -0.3533
15723SOL    HW148610   7.305   2.415   7.057  0.1048  0.1126 -1.1456
15723SOL    HW248611   7.418   2.324   7.014  0.4271 -0.0402 -0.0147
15724SOL     OW48612   7.714   0.678   9.992  0.5154 -0.2760 -0.8290
15724SOL    HW148613   7.781   0.719  10.048 -0.2551 -2.4328  1.9018
15724SOL    HW248614   7.632   0.720  10.019  0.1397 -1.3167 -0.2851
15725SOL     OW48615   7.816   2.512   8.728  0.1188 -0.0286  0.8992
15725SOL    HW148616   7.738   2.459   8.714  1.2590 -2.1036  1.9385
15725SOL    HW248617   7.888   2.458   8.696  1.2003  1.6532  0.3606
15726SOL     OW48618   0.019   4.208   6.666 -0.0488 -0.1710  0.1377
15726SOL    HW148619   0.062   4.125   6.646  1.1487  0.5629 -0.4089
15726SOL    HW248620  -0.070   4.183   6.692  0.6814 -1.7298  1.3131
15727SOL     OW48621   1.868   0.258   7.026  0.0266 -0.0270 -0.3198
15727SOL    HW148622   1.890   0.350   7.045 -0.7103 -0.1107  1.0011
15727SOL    HW248623   1.945   0.209   7.056  0.0549  0.0802 -0.2145
15728SOL     OW48624   0.394   1.853   8.364 -0.0689 -0.0030  0.3033
15728SOL    HW148625   0.399   1.787   8.433 -0.5590 -1.7571 -1.2412
15728SOL    HW248626   0.301   1.876   8.360 -0.1564 -0.4223 -0.1999
15729SOL     OW48627   0.954   5.713   3.003 -0.0862 -0.1869  0.0710
15729SOL    HW148628   0.873   5.676   3.038  0.6629 -1.9278  0.0581
15729SOL    HW248629   0.940   5.716   2.908 -0.3977  0.2120  0.1264
15730SOL     OW48630   4.529   4.795   4.326  0.5877 -0.2852 -0.2844
15730SOL    HW148631   4.498   4.806   4.416 -1.4286  2.3387 -1.1857
15730SOL    HW248632   4.477   4.722   4.292  0.3472 -0.3741  0.2588
15731SOL     OW48633   2.975   2.605   2.618 -0.1979  0.6465  0.1033
15731SOL    HW148634   3.011   2.690   2.644  0.0004 -0.1062  2.4949
15731SOL    HW248635   2.885   2.606   2.650  0.3221 -0.6522  1.7158
15732SOL     OW48636   3.403   6.834   3.643  0.2553  0.8160 -0.2331
15732SOL    HW148637   3.355   6.868   3.719  0.4568  0.6897 -0.0490
15732SOL    HW248638   3.339   6.837   3.572  0.1984  1.3438 -0.1641
15733SOL     OW48639   3.272   2.513   4.692 -0.0618 -0.2313 -0.3140
15733SOL    HW148640   3.202   2.555   4.643 -0.0729  0.6082  0.3924
15733SOL    HW248641   3.352   2.555   4.660 -0.0574  0.2181  0.2579
15734SOL     OW48642   0.047   4.798   7.363 -0.0721 -0.0326  0.0320
15734SOL    HW148643   0.019   4.761   7.279  0.5643 -1.6613  0.5065
15734SOL    HW248644  -0.030   4.846   7.394 -0.2587  0.7700 -1.5379
15735SOL     OW48645   5.239   0.786  11.397  0.1120  0.1067  0.3501
15735SOL    HW148646   5.150   0.816  11.414  0.3348  0.9291  0.1115
15735SOL    HW248647   5.294   0.863  11.413  0.6522 -0.0267 -0.7715
15736SOL     OW48648   2.210   3.849  11.697 -0.4455  0.2849  0.3967
15736SOL    HW148649   2.258   3.768  11.683  1.8699  1.6033  0.1474
15736SOL    HW248650   2.128   3.822  11.740 -0.1460 -2.2081 -0.4654
15737SOL     OW48651   4.929   2.212   7.032  0.1775  0.3680  0.1747
15737SOL    HW148652   4.862   2.238   7.095 -0.2004  1.1978 -0.5355
15737SOL    HW248653   4.991   2.286   7.032 -0.0353  0.5593 -0.6893
15738SOL     OW48654   4.538   4.696   3.209  0.2017 -0.1345  0.3192
15738SOL    HW148655   4.590   4.631   3.160  0.9339  1.4119 -1.0609
15738SOL    HW248656   4.554   4.675   3.301  1.5932 -1.0059 -0.0866
15739SOL     OW48657   0.396   3.985   2.163  0.3498  0.0469 -0.1032
15739SOL    HW148658   0.460   3.936   2.214 -1.6692  0.3700  3.0191
15739SOL    HW248659   0.402   4.074   2.197  1.0378  1.1101 -2.7311
15740SOL     OW48660   4.580   3.913   0.390  0.2086  0.4776  0.0896
15740SOL    HW148661   4.585   3.887   0.482 -1.5288  0.0320  0.0943
15740SOL    HW248662   4.517   3.985   0.388 -1.1121 -0.6342 -0.9183
15741SOL     OW48663   3.497   1.563   3.512  0.3575  0.0988  0.2048
15741SOL    HW148664   3.431   1.621   3.474  0.3416 -0.9968 -1.5466
15741SOL    HW248665   3.567   1.622   3.541  0.2557  1.0325 -1.3197
15742SOL     OW48666   4.879   1.917   7.991  0.3307 -0.4172  0.2293
15742SOL    HW148667   4.972   1.909   8.015  0.2416 -0.2839  0.6264
15742SOL    HW248668   4.850   1.826   7.979  0.9855 -0.4216 -1.7909
15743SOL     OW48669   1.485   3.582   1.823  0.2593  0.0684 -0.4071
15743SOL    HW148670   1.443   3.629   1.896  1.6490  0.7134  0.0103
15743SOL    HW248671   1.573   3.563   1.855  0.7809  0.0671 -1.7979
15744SOL     OW48672   2.537   3.801   9.462  0.1637 -0.3178 -0.4786
15744SOL    HW148673   2.598   3.808   9.535 -0.4296 -1.3551  0.1366
15744SOL    HW248674   2.475   3.872   9.476  0.6090  0.0946 -0.5361
15745SOL     OW48675   0.124   0.895   3.473 -0.3675  0.2645  0.5466
15745SOL    HW148676   0.216   0.892   3.447 -0.4846  0.7019  0.0665
15745SOL    HW248677   0.081   0.836   3.411 -0.7478  1.8073 -0.7302
15746SOL     OW48678   4.133   6.124  11.913  0.3027 -0.2736  0.2679
15746SOL    HW148679   4.103   6.213  11.930  0.0656 -0.3848  0.4421
15746SOL    HW248680   4.083   6.097  11.836  2.0123  0.5447 -1.1985
15747SOL     OW48681   2.322   5.950   0.355  0.3320 -0.2184 -0.6329
15747SOL    HW148682   2.371   5.881   0.398  1.8526  1.3766  0.3348
15747SOL    HW248683   2.260   5.981   0.421 -1.7761 -1.9299 -1.7100
15748SOL     OW48684   0.146   6.071   8.182  0.2531  0.2255  0.1211
15748SOL    HW148685   0.130   6.141   8.246 -0.0703 -0.4020  0.7436
15748SOL    HW248686   0.148   5.991   8.234 -0.7617 -0.3858 -0.7365
15749SOL     OW48687   1.226   3.132   1.001  0.6551 -0.0680 -0.3426
15749SOL    HW148688   1.241   3.114   1.094  0.8645  0.6274 -0.2363
15749SOL    HW248689   1.130   3.136   0.992  0.6528  0.5475 -0.0243
15750SOL     OW48690   5.356   5.824   1.264  0.4076 -0.3994 -0.1220
15750SOL    HW148691   5.409   5.826   1.344  0.3471 -3.4529  0.1055
15750SOL    HW248692   5.340   5.731   1.248 -1.6268  0.2395 -2.3699
15751SOL     OW48693   0.813   6.871   1.476 -0.3933  0.0409 -0.0030
15751SOL    HW148694   0.869   6.869   1.554 -1.5323 -0.0500  0.8371
15751SOL    HW248695   0.833   6.789   1.431 -0.2864 -0.2743  0.6009
15752SOL     OW48696   5.030   2.410   3.968  0.2842  0.0692 -0.1157
15752SOL    HW148697   5.023   2.385   4.060 -1.1207 -1.2489 -0.5306
15752SOL    HW248698   5.115   2.375   3.940  0.9687  0.9437  0.7726
15753SOL     OW48699   1.833   3.513   5.748 -0.2673 -0.1805 -0.3147
15753SOL    HW148700   1.740   3.515   5.769 -0.6051 -2.4817 -1.2729
15753SOL    HW248701   1.851   3.599   5.709 -1.9249  0.3739  0.0464
15754SOL     OW48702   7.836   5.612   2.487  0.7853 -0.0211 -0.3442
15754SOL    HW148703   7.919   5.574   2.458  1.0517 -0.5653  1.0795
15754SOL    HW248704   7.787   5.538   2.524 -0.4622  0.2418 -1.3839
15755SOL     OW48705   1.292   1.592   3.914  0.2841  0.3213  0.4482
15755SOL    HW148706   1.235   1.645   3.857  0.5968  1.4688  1.1554
15755SOL    HW248707   1.332   1.528   3.855 -2.1887 -0.9737  0.0148
15756SOL     OW48708   3.917   1.438   1.274  0.4189 -0.0281  0.0104
15756SOL    HW148709   3.941   1.362   1.327 -0.1702 -1.5706 -1.8166
15756SOL    HW248710   3.990   1.449   1.213  0.1155  0.3243 -0.2961
15757SOL     OW48711   7.107   5.404   6.975  0.6366 -0.4808  0.1474
15757SOL    HW148712   7.020   5.424   6.939  0.4173  0.1950  1.0162
15757SOL    HW248713   7.100   5.313   7.005  0.0392 -0.2430  0.7497
15758SOL     OW48714   4.382   3.099  10.093 -0.0481 -0.2425 -0.0196
15758SOL    HW148715   4.416   3.055  10.171 -0.0622 -0.0743  0.0820
15758SOL    HW248716   4.405   3.040  10.021  1.7003  0.5200 -0.1185
15759SOL     OW48717   6.700   1.229   7.714  0.0052 -0.8665  0.1070
15759SOL    HW148718   6.622   1.275   7.684  0.1427 -1.1118 -0.6548
15759SOL    HW248719   6.766   1.298   7.724 -0.6119 -0.4757  1.9293
15760SOL     OW48720   2.415   4.931  12.251 -0.0491 -0.3282  0.5136
15760SOL    HW148721   2.498   4.890  12.277 -0.1921 -0.5874  0.5691
15760SOL    HW248722   2.435   5.024  12.245  0.8856 -0.6219 -1.9095
15761SOL     OW48723   0.285   6.933   0.859  0.1721  0.3058 -0.6897
15761SOL    HW148724   0.304   6.939   0.953  0.8745 -0.1501 -0.7932
15761SOL    HW248725   0.225   7.005   0.841 -0.9625 -0.3404  0.3607
15762SOL     OW48726   7.285   5.369   9.811  0.3512 -0.8689 -0.9782
15762SOL    HW148727   7.341   5.442   9.837 -1.0515 -0.7751  2.3740
15762SOL    HW248728   7.208   5.410   9.773  0.0579 -0.6221 -0.1419
15763SOL     OW48729   2.934   6.258   7.300  0.3178  0.8501  0.6257
15763SOL    HW148730   2.899   6.344   7.276  2.1548  1.2374 -0.8334
15763SOL    HW248731   3.028   6.267   7.291  0.4894 -1.6507 -0.7476
15764SOL     OW48732   6.568   4.362   1.339 -0.0111 -0.5401  0.2065
15764SOL    HW148733   6.537   4.310   1.413 -0.4591 -0.6038 -0.0221
15764SOL    HW248734   6.659   4.336   1.328 -0.1166 -0.9812  0.3528
15765SOL     OW48735   5.769   3.665   8.564  0.0189  0.2691  0.0050
15765SOL    HW148736   5.851   3.649   8.610 -0.8145 -1.4364  1.0065
15765SOL    HW248737   5.749   3.582   8.521 -0.3916  1.1472 -1.5739
15766SOL     OW48738   0.164   3.751   6.218 -0.7595 -0.3955  0.3350
15766SOL    HW148739   0.143   3.779   6.129 -1.8627  1.7773  1.2142
15766SOL    HW248740   0.252   3.714   6.211 -0.7468 -0.0864 -1.6250
15767SOL     OW48741   5.477   1.613  12.090  0.0102  0.1525 -0.7493
15767SOL    HW148742   5.542   1.680  12.072  1.6432 -0.1483  3.1566
15767SOL    HW248743   5.528   1.534  12.111 -1.5018 -0.1934  2.1019
15768SOL     OW48744   7.557   0.051   3.724  0.0678 -0.1218  0.5538
15768SOL    HW148745   7.591   0.139   3.742 -2.8830  0.7147  2.8550
15768SOL    HW248746   7.479   0.066   3.669  0.7272 -1.5447 -0.8585
15769SOL     OW48747   0.356   1.897  11.795  0.4502 -0.1689  0.2800
15769SOL    HW148748   0.358   1.935  11.707 -0.5193 -4.0927 -1.6689
15769SOL    HW248749   0.449   1.891  11.820  0.7919  0.3176 -0.8105
15770SOL     OW48750   2.554   6.877  11.462 -0.6483 -0.1000  0.4872
15770SOL    HW148751   2.608   6.936  11.514 -1.5594  0.7224  0.5276
15770SOL    HW248752   2.616   6.816  11.423  0.3509  1.0259  0.2480
15771SOL     OW48753   3.757   2.719   4.183 -0.5334 -0.4747  0.3895
15771SOL    HW148754   3.834   2.730   4.238 -0.8612 -1.2368  1.0208
15771SOL    HW248755   3.716   2.806   4.181 -0.0721 -0.2482  0.6745
15772SOL     OW48756   2.833   3.724   8.177 -0.3505  0.8077  0.2276
15772SOL    HW148757   2.829   3.732   8.081  1.4544  0.5616  0.1062
15772SOL    HW248758   2.766   3.785   8.208  0.5063  2.5507 -1.1437
15773SOL     OW48759   6.097   2.189  10.631  0.0326  0.0493  0.2716
15773SOL    HW148760   6.028   2.222  10.574 -0.1831  0.4176  0.7377
15773SOL    HW248761   6.154   2.137  10.573  0.4812  1.3737 -0.5142
15774SOL     OW48762   5.427   3.417   1.436 -0.3670 -0.1578 -0.2995
15774SOL    HW148763   5.388   3.480   1.375 -0.5713  0.8592  0.8525
15774SOL    HW248764   5.388   3.333   1.412 -0.5633  0.2526 -1.4608
15775SOL     OW48765   7.839   0.787   7.435 -0.4390  0.3713  0.0516
15775SOL    HW148766   7.750   0.760   7.416 -0.1366  1.0766 -2.8462
15775SOL    HW248767   7.893   0.710   7.418 -0.3313  0.4848 -0.1339
15776SOL     OW48768   0.387   7.833   8.893 -1.0496 -0.0135 -0.1162
15776SOL    HW148769   0.470   7.823   8.939 -1.5485 -1.5581  0.5167
15776SOL    HW248770   0.334   7.889   8.949 -0.3871  1.1306 -0.6119
15777SOL     OW48771   3.739   6.144  10.632 -0.0453 -0.4729 -0.4444
15777SOL    HW148772   3.786   6.061  10.624  0.3852 -0.1293 -1.5743
15777SOL    HW248773   3.723   6.172  10.542  0.0917  0.8240 -0.0863
15778SOL     OW48774   5.950   5.636  10.033  0.2246  0.1207 -0.3852
15778SOL    HW148775   5.974   5.578   9.960 -2.0448  1.1012 -2.0511
15778SOL    HW248776   5.962   5.724   9.997  1.6659  0.7038  1.4100
15779SOL     OW48777   2.466   7.488   5.572  0.7899 -0.1992 -0.3209
15779SOL    HW148778   2.407   7.486   5.497  0.4987 -0.0328 -0.0980
15779SOL    HW248779   2.505   7.575   5.570 -2.1101  1.3012  1.9182
15780SOL     OW48780   1.134   2.397   6.531 -0.2909 -0.1047  0.1696
15780SOL    HW148781   1.128   2.490   6.511  0.0522  0.2836  1.7533
15780SOL    HW248782   1.199   2.391   6.600  1.8095 -1.8599 -1.7836
15781SOL     OW48783   0.121   6.537   2.258  0.2748  0.2060 -0.3529
15781SOL    HW148784   0.105   6.595   2.332 -0.0492 -0.7370  0.3332
15781SOL    HW248785   0.105   6.449   2.292 -1.0903 -0.1851 -1.8447
15782SOL     OW48786   2.808   3.434   2.600  0.9057 -0.3685  0.2132
15782SOL    HW148787   2.728   3.477   2.571  0.9449 -1.0970 -1.0547
15782SOL    HW248788   2.780   3.380   2.674  0.2155 -0.6166 -0.2150
15783SOL     OW48789   5.019   3.009  10.895  0.0520 -0.4151 -0.7846
15783SOL    HW148790   5.001   2.944  10.827  0.2048 -2.1314  0.7338
15783SOL    HW248791   5.104   2.982  10.931 -1.0109 -0.8923  1.5207
15784SOL     OW48792   4.622   2.100  11.548  0.4752 -0.0908 -0.2326
15784SOL    HW148793   4.578   2.117  11.631  0.1856 -0.2881 -0.3463
15784SOL    HW248794   4.564   2.137  11.481  0.2292 -0.7952 -0.4199
15785SOL     OW48795   2.730   2.004  11.384 -0.1988 -0.4271 -0.3396
15785SOL    HW148796   2.761   2.078  11.435  1.7621 -2.0652  1.0505
15785SOL    HW248797   2.705   2.041  11.300 -1.4393  2.0703  1.0303
15786SOL     OW48798   6.087   6.871  11.652  0.7694  0.1149  0.4373
15786SOL    HW148799   6.059   6.896  11.740  1.4538  1.4577  0.2947
15786SOL    HW248800   6.182   6.863  11.658  0.8854  0.7740 -0.2868
15787SOL     OW48801   6.648   5.723   9.800 -0.5461  0.2849 -0.4615
15787SOL    HW148802   6.622   5.641   9.843 -0.1673  0.3551 -0.0948
15787SOL    HW248803   6.710   5.696   9.732 -0.9288  0.2037 -0.7825
15788SOL     OW48804   6.089   0.775   0.029 -0.0236  0.2156  0.1184
15788SOL    HW148805   6.121   0.687   0.048 -1.0102 -0.3825 -0.8561
15788SOL    HW248806   6.164   0.832   0.045  0.7381 -0.8451  0.4028
15789SOL     OW48807   7.143   7.529   7.295 -0.1251  0.5473  0.0195
15789SOL    HW148808   7.154   7.474   7.217  0.7913 -0.7843  1.0360
15789SOL    HW248809   7.092   7.475   7.355  2.0700  0.1095  1.6349
15790SOL     OW48810   5.371   5.675   2.258 -0.3818  0.4562 -0.3395
15790SOL    HW148811   5.378   5.671   2.163  0.0016  1.6269 -0.3745
15790SOL    HW248812   5.311   5.748   2.275  0.0808  0.6889  0.3277
15791SOL     OW48813   3.147   4.377  10.048 -0.3929 -0.2138 -0.4418
15791SOL    HW148814   3.209   4.412   9.985 -1.2083  0.6248 -0.8177
15791SOL    HW248815   3.200   4.325  10.109  0.4275 -0.9008 -1.7040
15792SOL     OW48816   7.262   4.683   7.706  0.1288  0.5627  0.5439
15792SOL    HW148817   7.333   4.649   7.761 -0.6058  1.2805  1.9799
15792SOL    HW248818   7.247   4.772   7.739 -0.3158  1.0287 -0.8611
15793SOL     OW48819   2.840   6.122  10.003  0.0586 -0.0307  0.1499
15793SOL    HW148820   2.753   6.161   9.999  0.3272  0.6064  0.3861
15793SOL    HW248821   2.860   6.099   9.912  0.3254  1.3747 -0.1811
15794SOL     OW48822   4.917   4.201   2.732  0.1669  0.1319  0.0689
15794SOL    HW148823   4.869   4.128   2.771 -0.6112  1.1531  1.0361
15794SOL    HW248824   4.853   4.271   2.723  0.8670  0.6645 -1.0136
15795SOL     OW48825   6.110   2.459   5.168 -0.5446 -0.2385  0.0427
15795SOL    HW148826   6.186   2.403   5.151 -0.2512 -0.3792  1.6663
15795SOL    HW248827   6.145   2.532   5.219 -1.2526  0.4999 -0.4968
15796SOL     OW48828   2.262   0.787   6.811 -0.1304 -0.0835 -0.2916
15796SOL    HW148829   2.222   0.757   6.729  1.0365  1.0060 -1.3259
15796SOL    HW248830   2.189   0.809   6.868 -0.9871 -2.1676 -0.5108
15797SOL     OW48831   4.185   2.890   8.056  0.2337  0.5838  0.2430
15797SOL    HW148832   4.157   2.927   8.140  0.5398  0.9326  0.1948
15797SOL    HW248833   4.205   2.967   8.002 -0.0095  0.3633 -0.1680
15798SOL     OW48834   4.072   7.279   7.616 -0.5265  0.0072  0.0329
15798SOL    HW148835   4.104   7.337   7.686 -0.7994 -0.1189  0.2615
15798SOL    HW248836   4.134   7.293   7.544 -1.7938  2.2441 -0.7222
15799SOL     OW48837   4.304   6.515   5.042 -0.1681 -0.1220 -0.0393
15799SOL    HW148838   4.377   6.458   5.066 -0.2568  0.0399  0.6321
15799SOL    HW248839   4.255   6.465   4.976  0.1638 -0.5153  0.0082
15800SOL     OW48840   0.714   0.420   1.805 -0.0493  0.2311  0.5868
15800SOL    HW148841   0.665   0.395   1.726  2.0572  1.9501 -1.4198
15800SOL    HW248842   0.668   0.377   1.877 -3.0246 -0.1575 -1.3845
15801SOL     OW48843   2.293   6.440   1.175 -0.1370 -0.2221 -0.8682
15801SOL    HW148844   2.268   6.349   1.161  0.9522 -0.8886  1.2084
15801SOL    HW248845   2.253   6.464   1.259  1.0641  0.6120 -0.4984
15802SOL     OW48846   2.535   5.213  11.601 -0.4929  0.2406 -0.9200
15802SOL    HW148847   2.617   5.251  11.569  0.4135 -0.4907  0.4634
15802SOL    HW248848   2.484   5.288  11.631  0.4549  0.5708 -0.0688
15803SOL     OW48849   7.361   7.585   1.808 -0.6674 -0.1486 -0.1652
15803SOL    HW148850   7.276   7.629   1.809 -0.0233  1.1923 -1.2008
15803SOL    HW248851   7.340   7.492   1.797 -2.0010  0.0929  0.1524
15804SOL     OW48852   2.258   3.723   5.675 -0.6635  0.4519 -0.2716
15804SOL    HW148853   2.339   3.753   5.718 -1.5504  1.0311  1.0776
15804SOL    HW248854   2.272   3.740   5.582  0.8320  0.3669 -0.0911
15805SOL     OW48855   5.029   7.763  11.879  0.1663  0.1465 -0.2479
15805SOL    HW148856   4.969   7.740  11.950 -0.6487 -0.0868 -1.0016
15805SOL    HW248857   5.116   7.760  11.920 -0.2641 -0.2580  0.6706
15806SOL     OW48858   6.324   5.682   4.608 -0.2325  0.0397  0.7905
15806SOL    HW148859   6.409   5.637   4.612 -0.2455 -0.6824 -3.0297
15806SOL    HW248860   6.340   5.757   4.551 -2.1823 -0.2862 -0.2698
15807SOL     OW48861   5.186   3.313   7.428  0.3421 -0.3132  0.2665
15807SOL    HW148862   5.146   3.357   7.503  1.7574  0.7426  0.4455
15807SOL    HW248863   5.112   3.280   7.377 -0.7573  1.2432  0.7639
15808SOL     OW48864   7.043   3.765   6.913  0.1918  0.6057 -0.2778
15808SOL    HW148865   7.076   3.727   6.831  3.5446 -0.6005  1.4550
15808SOL    HW248866   7.093   3.846   6.923 -3.0129  2.8972 -1.2017
15809SOL     OW48867   1.221   3.915   0.111 -0.3055  0.2146  0.0050
15809SOL    HW148868   1.238   3.982   0.177  2.7798 -0.9537  0.5797
15809SOL    HW248869   1.179   3.962   0.039 -2.7912  1.7489  2.2727
15810SOL     OW48870   3.066   4.768   9.756 -0.2306 -0.1781  0.1150
15810SOL    HW148871   3.023   4.685   9.732 -1.4170  0.2073  0.8622
15810SOL    HW248872   3.157   4.744   9.769 -0.7514 -1.5966  1.3860
15811SOL     OW48873   1.004   2.756   1.952  0.5427  0.3965 -0.1009
15811SOL    HW148874   1.025   2.850   1.948 -1.4277  0.9675  1.4859
15811SOL    HW248875   0.930   2.745   1.893  0.1231  0.0463  0.4848
15812SOL     OW48876   7.379   0.663   7.101  0.0502 -0.1953 -0.2478
15812SOL    HW148877   7.331   0.616   7.032  0.8423  0.4579 -1.2653
15812SOL    HW248878   7.445   0.713   7.054  0.9498 -0.1415  1.0461
15813SOL     OW48879   6.259   5.753   7.763  0.4063  0.4663 -0.2045
15813SOL    HW148880   6.182   5.772   7.709 -0.2918  0.7505  0.8499
15813SOL    HW248881   6.310   5.834   7.759  0.3205  0.5142 -0.3723
15814SOL     OW48882   6.351   0.425   3.753 -0.2857 -0.9234 -0.2525
15814SOL    HW148883   6.428   0.480   3.767 -0.4349 -0.7262 -0.2100
15814SOL    HW248884   6.363   0.389   3.665 -1.0897  0.6445 -1.0527
15815SOL     OW48885   5.658   7.095   3.741  0.3744 -0.0811  0.6083
15815SOL    HW148886   5.611   7.171   3.774  0.7275  1.3347 -1.8906
15815SOL    HW248887   5.600   7.021   3.759 -3.1718  1.5708 -2.5107
15816SOL     OW48888   1.360   6.366   2.811  0.0781  0.0119 -0.1583
15816SOL    HW148889   1.341   6.276   2.784  0.6021  0.0841 -0.7915
15816SOL    HW248890   1.359   6.416   2.730 -1.9113  0.9201  0.3725
15817SOL     OW48891   5.534   2.145   0.081 -0.3737  0.3907 -0.4542
15817SOL    HW148892   5.572   2.064   0.114 -0.7698 -0.0854 -1.1440
15817SOL    HW248893   5.591   2.214   0.114 -0.3910 -0.1124  0.6735
15818SOL     OW48894   5.829   7.508   6.703 -0.1456  0.0470 -0.3578
15818SOL    HW148895   5.812   7.514   6.797  0.4916  0.5890 -0.2723
15818SOL    HW248896   5.752   7.546   6.662  0.2808  1.3206 -0.0106
15819SOL     OW48897   5.106   5.275   8.270  0.2290 -0.0953  0.0688
15819SOL    HW148898   5.138   5.366   8.270 -0.3859  0.1354  0.6854
15819SOL    HW248899   5.123   5.244   8.359  1.1402 -0.8573 -0.3497
15820SOL     OW48900   1.362   1.582   8.556  0.3065 -0.0925 -0.0422
15820SOL    HW148901   1.411   1.536   8.624 -1.1321 -0.7241  0.5917
15820SOL    HW248902   1.429   1.629   8.507  1.5655 -1.0580  0.6937
15821SOL     OW48903   7.977   2.512   1.678 -0.5272 -0.4000 -0.1540
15821SOL    HW148904   8.021   2.437   1.719 -0.1385  0.0295  0.2241
15821SOL    HW248905   7.912   2.472   1.620  0.6129 -1.0533 -1.0156
15822SOL     OW48906   7.376   5.678   7.909 -0.0547 -0.3216 -0.4730
15822SOL    HW148907   7.406   5.605   7.963 -0.3601  0.4668  0.7884
15822SOL    HW248908   7.286   5.694   7.938  0.4125  1.3471  0.1237
15823SOL     OW48909   3.875   2.255   1.077  0.1356 -0.6181 -0.0214
15823SOL    HW148910   3.967   2.281   1.077 -0.1383  0.4868  1.4839
15823SOL    HW248911   3.872   2.175   1.130  0.2214 -0.6510 -0.0658
15824SOL     OW48912   2.377   7.511   0.629 -0.1944  0.7477  0.5425
15824SOL    HW148913   2.404   7.588   0.579 -2.3455  2.4215  1.7943
15824SOL    HW248914   2.425   7.518   0.711  1.4833 -0.6646 -0.2690
15825SOL     OW48915   4.403   4.412  10.220 -0.5968  0.2118 -0.1824
15825SOL    HW148916   4.357   4.389  10.140 -1.1205  0.1735  0.1232
15825SOL    HW248917   4.370   4.499  10.242 -1.3290 -0.2457  0.6060
15826SOL     OW48918   3.341   7.028   0.990  0.0689  0.0584 -0.4022
15826SOL    HW148919   3.421   7.077   0.969 -0.3929  1.9469  1.7902
15826SOL    HW248920   3.272   7.094   0.989 -0.9874 -0.9944  0.4545
15827SOL     OW48921   7.975   5.230  11.935  0.3856 -0.2890 -0.1039
15827SOL    HW148922   7.885   5.254  11.915  0.2459  0.6223  1.4152
15827SOL    HW248923   8.022   5.236  11.852 -1.1435 -1.8106 -1.1265
15828SOL     OW48924   1.275   6.565   9.901  0.0024  0.0296 -0.2893
15828SOL    HW148925   1.241   6.644   9.859  0.7418  0.7708  0.4790
15828SOL    HW248926   1.215   6.549   9.974 -0.4322 -0.4106 -0.7388
15829SOL     OW48927   5.865   2.985   5.162  0.0568  0.0046 -0.4533
15829SOL    HW148928   5.895   3.034   5.239 -0.0901  1.0345 -1.0304
15829SOL    HW248929   5.777   3.018   5.146  0.2486  0.1148 -1.3116
15830SOL     OW48930   0.823   6.830   6.012 -0.5291 -0.1130  0.3878
15830SOL    HW148931   0.747   6.884   5.987 -0.9456 -0.3431  1.1139
15830SOL    HW248932   0.854   6.869   6.094 -0.1669 -0.3275  0.3541
15831SOL     OW48933   4.641   5.604   8.154 -0.5792  0.2041 -0.0310
15831SOL    HW148934   4.728   5.567   8.141 -0.8546  0.1523 -1.9789
15831SOL    HW248935   4.595   5.539   8.208  0.4722  0.1054  0.7832
15832SOL     OW48936   3.854   6.921   4.415 -0.1352  0.0412  0.5509
15832SOL    HW148937   3.801   6.968   4.351  0.0833 -0.2156  0.1832
15832SOL    HW248938   3.813   6.834   4.421  0.5320 -0.3308 -0.1034
15833SOL     OW48939   3.379   0.484   6.108  0.0812 -0.4465 -0.1526
15833SOL    HW148940   3.426   0.404   6.083  0.3601  0.2056 -1.8731
15833SOL    HW248941   3.417   0.552   6.052 -1.0623  0.6216  0.3376
15834SOL     OW48942   5.758   2.886  11.929  0.0049 -0.2503  0.0331
15834SOL    HW148943   5.782   2.812  11.984  1.0476  0.7014  0.9278
15834SOL    HW248944   5.767   2.962  11.987  0.0999  0.6801 -1.1743
15835SOL     OW48945   4.245   1.839   8.600 -0.3513 -0.0971 -0.4792
15835SOL    HW148946   4.212   1.772   8.541  0.6268 -0.5086 -0.5765
15835SOL    HW248947   4.317   1.881   8.551  1.3903 -1.3513  0.8729
15836SOL     OW48948   0.966   6.238   1.442  0.6830 -0.1822  0.2876
15836SOL    HW148949   1.043   6.239   1.499  1.5540  0.5599 -0.8522
15836SOL    HW248950   1.001   6.236   1.353 -0.5472  1.8339 -0.3221
15837SOL     OW48951   2.348   3.296   3.256 -0.1215 -0.1277  0.0122
15837SOL    HW148952   2.373   3.382   3.223 -1.7006  1.3444  2.3714
15837SOL    HW248953   2.254   3.290   3.240  0.2646 -2.5001 -2.1786
15838SOL     OW48954   0.719   5.450   0.655 -0.1813  0.3485 -0.2542
15838SOL    HW148955   0.643   5.456   0.597 -0.4556  1.7681  0.2296
15838SOL    HW248956   0.686   5.474   0.741  0.8029  0.9296 -0.0273
15839SOL     OW48957   3.515   6.209   8.519 -0.7237  0.6537 -1.0178
15839SOL    HW148958   3.526   6.118   8.546 -0.0322  0.8806 -0.5205
15839SOL    HW248959   3.435   6.237   8.562 -0.3394  0.6109 -0.2596
15840SOL     OW48960   4.594   7.547  10.690  0.0647  0.4937 -0.0383
15840SOL    HW148961   4.657   7.611  10.658 -1.7969  2.4997  0.0592
15840SOL    HW248962   4.511   7.571  10.648 -0.7540 -1.7834  0.1356
15841SOL     OW48963   0.631   5.554   2.364 -0.4815 -0.3514 -0.2569
15841SOL    HW148964   0.583   5.485   2.318 -1.6304  0.8944 -1.0173
15841SOL    HW248965   0.682   5.598   2.296  0.7540 -0.8288  0.3320
15842SOL     OW48966   4.380   2.390   1.395 -0.7525  0.3338 -0.2442
15842SOL    HW148967   4.382   2.452   1.322 -2.2234  0.0379 -0.5549
15842SOL    HW248968   4.445   2.425   1.457  1.5266 -0.1080 -2.2084
15843SOL     OW48969   1.075   1.652   1.427 -0.7739 -0.0404  0.8393
15843SOL    HW148970   1.037   1.590   1.489 -0.3074 -0.4765  0.6971
15843SOL    HW248971   1.069   1.609   1.342  1.7656 -0.9826  1.0547
15844SOL     OW48972   3.250   6.579   4.109 -0.4646  0.7661  0.0285
15844SOL    HW148973   3.336   6.573   4.149 -0.2795 -0.3576 -0.5219
15844SOL    HW248974   3.191   6.534   4.170 -0.3058 -0.2978 -0.5928
15845SOL     OW48975   6.989   6.106   1.177 -0.0843  0.5555  0.7151
15845SOL    HW148976   6.991   6.015   1.208  2.3693  0.0844 -0.5658
15845SOL    HW248977   6.897   6.132   1.184 -1.3253 -2.8061 -1.0111
15846SOL     OW48978   6.273   5.504  10.900  0.0820 -0.3133 -0.3681
15846SOL    HW148979   6.202   5.520  10.961  0.1194 -0.9081 -0.1591
15846SOL    HW248980   6.259   5.414  10.870  1.0375 -0.6256  0.0824
15847SOL     OW48981   4.858   4.957   2.397  0.7648  0.0074 -0.3622
15847SOL    HW148982   4.837   5.033   2.451  0.6966  1.5762 -2.4661
15847SOL    HW248983   4.946   4.932   2.424 -0.0749 -0.7122  1.9905
15848SOL     OW48984   3.414   2.849   5.172 -0.2886 -0.4527 -0.1330
15848SOL    HW148985   3.492   2.841   5.227 -2.1106  0.1433  2.7512
15848SOL    HW248986   3.442   2.904   5.099  2.0308 -0.4147  0.6836
15849SOL     OW48987   3.352   0.756   7.219  0.1607  0.6634 -0.3535
15849SOL    HW148988   3.405   0.682   7.247 -0.3574  0.3196 -0.2638
15849SOL    HW248989   3.404   0.833   7.241  0.0995  0.3816  0.8467
15850SOL     OW48990   1.324   7.742   4.440  0.1510  0.3636 -0.2475
15850SOL    HW148991   1.330   7.677   4.509  0.5668 -0.1860 -0.7943
15850SOL    HW248992   1.321   7.826   4.486 -1.2147 -0.0701  0.4941
15851SOL     OW48993   5.203   4.095  11.419  0.1024  0.0634 -0.2362
15851SOL    HW148994   5.284   4.081  11.468 -1.3073 -2.5187  1.5870
15851SOL    HW248995   5.215   4.048  11.337  0.4772 -0.2877  0.0165
15852SOL     OW48996   5.044   7.945   7.770  0.4097 -0.1272 -0.3554
15852SOL    HW148997   5.075   7.903   7.690 -0.2989 -1.6637  0.1333
15852SOL    HW248998   5.095   7.904   7.840 -1.1777 -1.1643  0.2483
15853SOL     OW48999   5.131   2.616   8.697  0.2132  0.3827  0.2523
15853SOL    HW149000   5.057   2.568   8.734 -0.7176  0.6219 -1.2106
15853SOL    HW249001   5.182   2.550   8.651  2.2635 -0.2088  3.1695
15854SOL     OW49002   4.084   1.051   6.411  0.4907 -0.1022  0.0926
15854SOL    HW149003   4.013   1.018   6.356  0.8255 -1.7721  0.6284
15854SOL    HW249004   4.157   1.066   6.351  1.1817 -2.8627  0.1426
15855SOL     OW49005   4.914   7.023   4.413  0.3133 -0.3698  0.1733
15855SOL    HW149006   4.904   7.037   4.508  1.2552  0.8798  0.1152
15855SOL    HW249007   4.983   6.957   4.406 -0.5413 -1.3092  0.3587
15856SOL     OW49008   0.233   7.145   5.009  0.5167  0.2069 -0.1678
15856SOL    HW149009   0.325   7.150   5.033  0.7721  0.5498 -1.1761
15856SOL    HW249010   0.197   7.231   5.034  1.1893  1.2469 -2.5593
15857SOL     OW49011   4.238   7.323  12.057 -0.2293 -0.7648  0.2210
15857SOL    HW149012   4.304   7.262  12.089 -0.5016 -1.0403  0.2684
15857SOL    HW249013   4.178   7.335  12.131  0.1234 -0.0102  0.3892
15858SOL     OW49014   0.744   7.915   3.263 -0.0935 -0.2281  0.4886
15858SOL    HW149015   0.742   7.941   3.355  0.0980  0.4189  0.3178
15858SOL    HW249016   0.688   7.837   3.258 -0.3669 -0.0736  1.0927
15859SOL     OW49017   1.286   1.803   4.959  0.3429 -0.1555 -0.4897
15859SOL    HW149018   1.198   1.825   4.990  0.9925 -0.6667  1.8800
15859SOL    HW249019   1.303   1.867   4.890 -1.0928  1.3034  0.4305
15860SOL     OW49020   5.151   0.720   3.822 -0.2211 -0.2757 -0.2549
15860SOL    HW149021   5.239   0.752   3.838 -0.3167  0.1666 -0.6149
15860SOL    HW249022   5.150   0.632   3.860  0.9452 -1.0459 -1.9058
15861SOL     OW49023   7.475   4.978   6.381 -0.2501  0.4411  0.1640
15861SOL    HW149024   7.549   4.978   6.319  0.9270  1.5178  1.5046
15861SOL    HW249025   7.415   5.045   6.346 -0.0242  0.4176 -0.2849
15862SOL     OW49026   1.110   7.444   6.554 -0.0502  0.0591  0.3921
15862SOL    HW149027   1.021   7.474   6.571  0.2013  0.6420  0.7222
15862SOL    HW249028   1.165   7.500   6.609  0.4787 -0.6371  0.5765
15863SOL     OW49029   1.335   2.806   0.764  0.1833 -0.8149  0.2436
15863SOL    HW149030   1.366   2.715   0.770  0.0812 -1.1440 -2.6241
15863SOL    HW249031   1.407   2.857   0.801  0.3084 -2.0009  1.7803
15864SOL     OW49032   2.870   0.106   4.465  0.5390  0.3406  0.0369
15864SOL    HW149033   2.913   0.034   4.419 -0.6221 -0.9855  0.9499
15864SOL    HW249034   2.847   0.070   4.551 -2.6149  0.8004 -0.4686
15865SOL     OW49035   6.639   7.664   7.412 -0.3148 -0.0512  0.2053
15865SOL    HW149036   6.643   7.760   7.408 -3.0172  0.2914  2.6213
15865SOL    HW249037   6.637   7.637   7.320 -0.4751  2.2753 -0.5604
15866SOL     OW49038   3.604   0.961   9.064  0.7950  0.1266  0.0153
15866SOL    HW149039   3.517   1.001   9.065  0.9271  0.4236 -0.0212
15866SOL    HW249040   3.592   0.876   9.022  1.0074  1.3373 -2.7033
15867SOL     OW49041   1.282   1.862   7.131 -0.6104 -0.1315  0.0135
15867SOL    HW149042   1.328   1.820   7.059 -0.6992 -1.9679  0.9618
15867SOL    HW249043   1.191   1.868   7.101 -0.7191 -1.2230  0.0753
15868SOL     OW49044   4.146   2.007   7.435 -0.2932  0.4391  0.2856
15868SOL    HW149045   4.118   1.940   7.496 -0.8991  0.3366 -0.0931
15868SOL    HW249046   4.180   1.959   7.360  0.7966  0.5625  0.6800
15869SOL     OW49047   3.888   0.348   6.897  0.4656  0.0266 -0.1231
15869SOL    HW149048   3.800   0.371   6.926  0.6156  1.0450 -0.4362
15869SOL    HW249049   3.877   0.265   6.850 -0.4268  0.4634 -0.7052
15870SOL     OW49050   5.677   3.708   6.780 -0.2110 -0.0115 -0.1066
15870SOL    HW149051   5.732   3.720   6.703  0.3478  1.6703  0.5117
15870SOL    HW249052   5.590   3.691   6.745  0.4614 -1.5954 -1.0953
15871SOL     OW49053   3.015   4.476   1.188  0.4848 -0.1093 -0.2615
15871SOL    HW149054   3.071   4.404   1.214 -1.2036 -2.3674 -2.4205
15871SOL    HW249055   2.929   4.436   1.173 -0.5111  2.3181 -1.7233
15872SOL     OW49056   5.073   3.881   4.223 -0.0625 -0.3550 -0.3262
15872SOL    HW149057   5.073   3.937   4.300  0.6740  2.3326 -2.1108
15872SOL    HW249058   5.141   3.816   4.240  0.0877  0.1826  1.2445
15873SOL     OW49059   4.311   1.233   8.388  0.5031  0.2954  0.1141
15873SOL    HW149060   4.252   1.229   8.312  0.4776 -0.8623  0.1706
15873SOL    HW249061   4.271   1.174   8.452  0.4060  1.4335  1.1257
15874SOL     OW49062   0.320   0.333   9.759 -0.1506 -0.2134  0.2109
15874SOL    HW149063   0.247   0.342   9.698  0.3925 -0.7733 -0.5418
15874SOL    HW249064   0.342   0.423   9.784 -0.4306  0.0185 -0.3623
15875SOL     OW49065   0.012   0.921  10.799  0.0098  0.2833  0.1669
15875SOL    HW149066  -0.082   0.905  10.800  0.2436 -1.2563  0.0978
15875SOL    HW249067   0.024   0.995  10.739 -1.0206 -0.4751 -1.0221
15876SOL     OW49068   2.473   3.440   0.560 -0.1329 -0.1373  0.2574
15876SOL    HW149069   2.449   3.430   0.468 -1.9524  0.5421  0.6183
15876SOL    HW249070   2.438   3.362   0.602  0.0410 -0.0854  0.5027
15877SOL     OW49071   4.135   1.416  10.013 -0.6805 -0.7003  0.0562
15877SOL    HW149072   4.230   1.426  10.012 -0.6643 -0.9105 -0.4204
15877SOL    HW249073   4.105   1.479  10.080 -0.4143  1.1215 -1.4447
15878SOL     OW49074   2.747   1.780   3.102 -0.3482  0.1469  0.0820
15878SOL    HW149075   2.744   1.873   3.126  0.4889  0.2904 -0.3512
15878SOL    HW249076   2.807   1.776   3.028  0.6882 -0.9101  0.9326
15879SOL     OW49077   7.052   1.630   1.616 -0.4423 -0.1279  0.0857
15879SOL    HW149078   6.991   1.608   1.686  0.9566 -1.2122  1.0192
15879SOL    HW249079   7.135   1.591   1.643  0.3791  0.2372 -1.7296
15880SOL     OW49080   7.250   0.432   0.402 -0.3895  0.2010  0.0187
15880SOL    HW149081   7.305   0.406   0.328 -1.9769  0.2325 -1.2399
15880SOL    HW249082   7.303   0.494   0.451  1.0942 -0.6136 -0.5001
15881SOL     OW49083   3.423   5.897   2.052  0.1787 -0.0423 -0.4087
15881SOL    HW149084   3.458   5.817   2.092 -0.4213 -0.2310 -0.2511
15881SOL    HW249085   3.487   5.919   1.984  0.3862 -0.6201 -0.4111
15882SOL     OW49086   2.379   5.149   6.839 -0.5866 -0.0398  1.4902
15882SOL    HW149087   2.357   5.068   6.794  0.2801 -0.2434  1.4204
15882SOL    HW249088   2.459   5.180   6.796 -0.2572  0.2344  2.2818
15883SOL     OW49089   4.461   1.060   1.938 -0.2390 -0.6502  0.0036
15883SOL    HW149090   4.407   1.079   2.015 -0.4063 -0.2633 -0.2005
15883SOL    HW249091   4.500   0.975   1.955 -1.6676 -1.3845 -0.2469
15884SOL     OW49092   6.486   3.698   8.614  0.1964 -0.2358 -0.5298
15884SOL    HW149093   6.528   3.613   8.629 -0.7885 -0.5390  0.6683
15884SOL    HW249094   6.558   3.759   8.604  0.9217 -1.1088 -0.7318
15885SOL     OW49095   5.892   2.326  10.457 -0.5507  0.0318  0.2081
15885SOL    HW149096   5.865   2.412  10.489 -0.8843 -0.3309  0.9230
15885SOL    HW249097   5.811   2.285  10.426 -0.1777  0.5343 -1.5388
15886SOL     OW49098   4.264   2.778  11.758 -0.5216  0.1454  0.0878
15886SOL    HW149099   4.208   2.791  11.835 -0.3907 -0.2035  0.2413
15886SOL    HW249100   4.350   2.758  11.794 -0.3998  0.2342 -0.1515
15887SOL     OW49101   1.578   7.385   1.283  0.3099 -0.2721  0.4365
15887SOL    HW149102   1.536   7.427   1.208 -1.4681  1.3311  2.2060
15887SOL    HW249103   1.544   7.296   1.282 -1.5147  0.3746  0.5716
15888SOL     OW49104   2.802   2.458   0.095  0.2735 -0.3519 -0.0841
15888SOL    HW149105   2.832   2.545   0.068  1.1643 -1.1308 -1.8072
15888SOL    HW249106   2.725   2.442   0.041  0.8291 -1.1023 -0.6717
15889SOL     OW49107   1.509   5.729   7.458 -0.4319  0.2746  0.3448
15889SOL    HW149108   1.550   5.646   7.435 -0.2717  0.6704 -0.8671
15889SOL    HW249109   1.449   5.707   7.529 -1.8329 -1.2617 -1.2122
15890SOL     OW49110   0.354   7.082   5.708 -0.0385  0.3387  0.4072
15890SOL    HW149111   0.350   7.007   5.767  0.1415 -0.2534 -0.3219
15890SOL    HW249112   0.262   7.105   5.693 -0.1088 -0.0051  0.2983
15891SOL     OW49113   0.467   6.443   7.613 -0.2729 -0.2477 -0.3760
15891SOL    HW149114   0.427   6.488   7.539  0.7349 -0.3933 -1.0291
15891SOL    HW249115   0.404   6.375   7.637 -2.0932  1.7808  0.9970
15892SOL     OW49116   4.785   3.564   2.257 -0.0263 -0.6034 -0.0706
15892SOL    HW149117   4.804   3.522   2.340  0.4429 -0.0913  0.0873
15892SOL    HW249118   4.839   3.517   2.193  2.4891  1.3182  0.4848
15893SOL     OW49119   3.364   7.168   6.371 -0.3191 -0.0644  0.1944
15893SOL    HW149120   3.379   7.074   6.378  0.8200  0.0523 -0.3930
15893SOL    HW249121   3.279   7.183   6.412 -0.7222 -1.4055 -0.1324
15894SOL     OW49122   6.844   3.062   5.016  0.0864 -0.2541  0.6264
15894SOL    HW149123   6.923   3.024   5.055  0.1807 -0.9821 -0.2442
15894SOL    HW249124   6.772   3.020   5.063  0.1461 -2.6919 -1.2635
15895SOL     OW49125   5.880   1.965   9.827  0.0964  0.5371  0.3719
15895SOL    HW149126   5.896   1.896   9.892  1.8980  0.9303  0.3882
15895SOL    HW249127   5.934   2.038   9.856  1.2711  0.5792 -1.7478
15896SOL     OW49128   4.678   5.485   3.564  0.0572  0.6319  0.4037
15896SOL    HW149129   4.726   5.434   3.498  1.0027  0.1208  1.4486
15896SOL    HW249130   4.738   5.554   3.589  1.0434 -0.9982  2.9556
15897SOL     OW49131   5.220   2.973   5.812 -0.5721  0.3241  1.0794
15897SOL    HW149132   5.194   2.987   5.721  0.6468 -2.4698  0.1884
15897SOL    HW249133   5.185   2.887   5.835  0.0407  0.5081  2.9146
15898SOL     OW49134   1.832   3.849   0.244 -0.2831  0.2096 -0.5750
15898SOL    HW149135   1.835   3.799   0.325 -0.9135  0.9142 -0.0971
15898SOL    HW249136   1.757   3.907   0.254 -0.4012  0.2804 -1.6887
15899SOL     OW49137   7.384   3.877   6.788 -0.2458 -0.3008 -0.6679
15899SOL    HW149138   7.358   3.915   6.872 -0.3380 -0.7138 -0.5075
15899SOL    HW249139   7.407   3.787   6.809  1.3844  0.0508 -0.7910
15900SOL     OW49140   1.089   5.452  10.851  0.0338  0.0538 -0.1844
15900SOL    HW149141   1.046   5.536  10.836  1.1774  0.9460  1.2505
15900SOL    HW249142   1.024   5.401  10.900  0.3869  1.2724  1.6701
15901SOL     OW49143   6.519   3.259   1.903 -0.4032  0.3720  0.2849
15901SOL    HW149144   6.454   3.207   1.951 -2.7218  0.4692 -2.4612
15901SOL    HW249145   6.469   3.298   1.831  2.4880  1.5774 -1.2080
15902SOL     OW49146   0.110   5.322   2.751 -0.2184 -0.3930  0.3478
15902SOL    HW149147   0.018   5.325   2.779  0.0315 -1.2372  1.3462
15902SOL    HW249148   0.158   5.295   2.830  0.7243 -1.2877 -0.4948
15903SOL     OW49149   7.854   0.084   7.968 -0.4077  0.4535  0.3578
15903SOL    HW149150   7.822   0.014   7.912 -0.4546  1.0934 -0.4345
15903SOL    HW249151   7.797   0.158   7.949  0.0624  0.9103  0.6850
15904SOL     OW49152   1.863   0.616   4.510 -0.4244 -0.6154 -0.4259
15904SOL    HW149153   1.875   0.711   4.509  1.5776 -0.8300 -1.1812
15904SOL    HW249154   1.774   0.603   4.543 -0.1450  1.4558  1.3281
15905SOL     OW49155   5.135   4.340   8.861  0.5964 -0.2125  0.3760
15905SOL    HW149156   5.116   4.401   8.932  2.0984  0.4500  0.2454
15905SOL    HW249157   5.082   4.263   8.881 -2.6948  1.6585 -0.3287
15906SOL     OW49158   7.057   4.406   4.864 -0.3041  0.4631  0.3987
15906SOL    HW149159   7.139   4.427   4.820 -0.2978  1.2354  0.7809
15906SOL    HW249160   7.025   4.489   4.899 -1.5551  0.2918 -0.2529
15907SOL     OW49161   6.289   0.643   1.086  0.1920  0.2065 -0.1354
15907SOL    HW149162   6.384   0.631   1.092  0.0741 -0.2103  1.3816
15907SOL    HW249163   6.275   0.736   1.101  0.5248  0.8725 -3.3638
15908SOL     OW49164   0.072   1.214  11.060  0.6065 -0.6302 -0.5613
15908SOL    HW149165   0.034   1.257  10.983  1.8229  0.8719 -0.3683
15908SOL    HW249166   0.162   1.245  11.063  1.1007 -2.0715  0.4765
15909SOL     OW49167   6.437   7.385   3.291  0.1630  0.3251  0.0325
15909SOL    HW149168   6.423   7.479   3.298  0.2138  0.4181 -0.9371
15909SOL    HW249169   6.513   7.368   3.346 -0.4614  0.6778  1.0272
15910SOL     OW49170   2.799   6.584   8.605  0.1453 -0.1667  0.4749
15910SOL    HW149171   2.822   6.646   8.675 -0.5501  1.3255 -0.5799
15910SOL    HW249172   2.716   6.546   8.634 -0.5723  1.0578  0.1241
15911SOL     OW49173   3.616   0.736   8.909 -0.6593 -0.4288  0.1785
15911SOL    HW149174   3.698   0.706   8.871 -0.2576  0.3370  0.4117
15911SOL    HW249175   3.554   0.665   8.893  0.3092 -1.4666  0.9356
15912SOL     OW49176   1.295   2.572  12.169  0.1047 -0.2882  0.0365
15912SOL    HW149177   1.246   2.579  12.251  1.2367  0.0094  0.7151
15912SOL    HW249178   1.366   2.636  12.179  1.3107 -1.5078 -0.4165
15913SOL     OW49179   4.055   3.077  11.819 -0.6670  0.1113  0.4599
15913SOL    HW149180   4.047   2.985  11.845 -0.8375  0.0285  0.1118
15913SOL    HW249181   4.141   3.103  11.852  0.4064 -0.8236 -1.4529
15914SOL     OW49182   6.768   0.631   2.081 -0.5971 -0.1393 -0.0795
15914SOL    HW149183   6.678   0.597   2.086 -0.6322 -0.0491 -0.1035
15914SOL    HW249184   6.769   0.684   2.001 -1.1243  1.6189  1.0222
15915SOL     OW49185   7.670   0.943   0.586  0.1243 -0.1889 -0.0553
15915SOL    HW149186   7.684   0.908   0.674 -2.1721  0.1860  0.5224
15915SOL    HW249187   7.751   0.923   0.539  0.7415 -1.9286  1.6294
15916SOL     OW49188   5.913   0.767   3.342  0.1261 -0.2029 -0.0522
15916SOL    HW149189   5.933   0.754   3.435  0.1706 -0.8268 -0.1431
15916SOL    HW249190   5.998   0.772   3.300  0.1061 -0.5530 -0.1384
15917SOL     OW49191   5.649   4.975   2.738 -0.0835  0.2359  0.3367
15917SOL    HW149192   5.592   5.029   2.683 -1.9169  0.2849  2.1442
15917SOL    HW249193   5.729   5.026   2.748 -0.5143  1.1279 -0.6377
15918SOL     OW49194   1.644   0.395   9.385 -0.5190 -0.4808 -0.3137
15918SOL    HW149195   1.565   0.394   9.440 -0.7202 -0.4356 -0.5979
15918SOL    HW249196   1.713   0.360   9.441 -0.6436 -0.1004  0.0855
15919SOL     OW49197   1.791   7.176  10.237  0.5180  0.2066  0.0904
15919SOL    HW149198   1.702   7.147  10.219  0.6964 -0.0657 -0.3796
15919SOL    HW249199   1.788   7.271  10.227 -0.4836  0.6461  3.3883
15920SOL     OW49200   0.370   2.424   0.024  0.0735  0.3806 -0.2379
15920SOL    HW149201   0.330   2.343   0.058 -0.3836  0.6862 -0.0331
15920SOL    HW249202   0.412   2.398  -0.057  1.1521 -0.3609  0.5370
15921SOL     OW49203   5.472   3.948  10.298 -0.1917 -0.1253 -0.5042
15921SOL    HW149204   5.524   4.011  10.249 -1.0111 -0.6876 -2.1937
15921SOL    HW249205   5.460   3.874  10.238 -2.1530 -0.4016  0.1208
15922SOL     OW49206   3.196   6.809  10.339  0.0495 -0.4549  0.4144
15922SOL    HW149207   3.143   6.783  10.264  0.4497  0.5964 -0.2459
15922SOL    HW249208   3.213   6.726  10.385 -2.1075 -0.8171  0.6421
15923SOL     OW49209   7.505   1.538   4.978 -0.7466  0.2219  0.1411
15923SOL    HW149210   7.497   1.633   4.980  0.0326  0.3314 -0.9801
15923SOL    HW249211   7.570   1.521   4.910  0.1073 -1.0673  1.2353
15924SOL     OW49212   0.405   6.950   4.064 -0.2323  0.1725  0.6916
15924SOL    HW149213   0.322   6.929   4.020 -0.6821  0.3840  1.4121
15924SOL    HW249214   0.472   6.908   4.010 -0.6259  1.4624 -0.8909
15925SOL     OW49215   6.840   3.505   7.550 -0.0962  0.0246 -0.7217
15925SOL    HW149216   6.932   3.530   7.559 -1.0288  3.0773  2.6960
15925SOL    HW249217   6.802   3.572   7.494 -0.3940 -1.0121 -1.8111
15926SOL     OW49218   6.151   7.682   0.477  0.0130  0.1918 -0.7768
15926SOL    HW149219   6.238   7.721   0.477  0.3276 -0.4514  0.0226
15926SOL    HW249220   6.092   7.754   0.501  0.5516  0.2545  0.4664
15927SOL     OW49221   5.284   3.291   4.182 -0.0471  0.5845  0.6236
15927SOL    HW149222   5.379   3.286   4.172 -0.1357  0.7816 -0.4395
15927SOL    HW249223   5.251   3.208   4.147 -0.3161  0.8167  0.3247
15928SOL     OW49224   6.353   7.036   0.226 -0.3743  0.0117 -0.8313
15928SOL    HW149225   6.266   7.031   0.267 -0.4513  1.8402 -0.6969
15928SOL    HW249226   6.405   6.972   0.273 -0.9426  0.8113  0.9623
15929SOL     OW49227   0.630   7.305   2.358  0.5300  0.4447  0.3111
15929SOL    HW149228   0.719   7.280   2.332  0.4284 -0.6951  0.9623
15929SOL    HW249229   0.573   7.258   2.297  0.3384 -0.6969  1.3376
15930SOL     OW49230   4.197   6.071   3.634  0.6178  0.1240  0.1286
15930SOL    HW149231   4.267   6.073   3.699  1.7253  2.2547 -1.0335
15930SOL    HW249232   4.120   6.102   3.681  1.2191  0.8935  0.6217
15931SOL     OW49233   0.858   5.844   8.753 -0.2908  0.2997 -0.4262
15931SOL    HW149234   0.834   5.759   8.791  0.4743  0.8651  1.4263
15931SOL    HW249235   0.907   5.821   8.674  0.0383 -0.9998  0.1146
15932SOL     OW49236   6.815   6.400   6.747  0.6402 -0.0763  0.2257
15932SOL    HW149237   6.815   6.357   6.832  1.3341  0.9191  0.7461
15932SOL    HW249238   6.857   6.485   6.762 -0.1468  0.5472 -0.8945
15933SOL     OW49239   1.668   5.866   7.778 -0.0090 -0.0752  0.3090
15933SOL    HW149240   1.749   5.815   7.783  0.4535  0.6542  0.4394
15933SOL    HW249241   1.637   5.872   7.868 -0.5419 -0.8686  0.1847
15934SOL     OW49242   5.491   1.565  11.386 -0.5089  0.4703 -0.4556
15934SOL    HW149243   5.442   1.565  11.304 -1.4937 -3.5998 -0.0940
15934SOL    HW249244   5.560   1.499  11.373  2.1693  2.8448  0.6150
15935SOL     OW49245   4.220   3.088   9.237  0.6229 -0.1736  0.0814
15935SOL    HW149246   4.234   3.170   9.190  1.6593 -1.2979 -1.6636
15935SOL    HW249247   4.242   3.109   9.328 -0.1678  1.7299 -0.1187
15936SOL     OW49248   4.697   7.202   9.652 -0.2331 -0.0203 -0.0816
15936SOL    HW149249   4.623   7.148   9.676 -0.6562  0.5669 -0.0451
15936SOL    HW249250   4.667   7.292   9.666  0.8870  0.1936  1.1284
15937SOL     OW49251   2.089   2.252   0.097  0.8022 -0.3430  0.1332
15937SOL    HW149252   2.177   2.230   0.128  0.9516 -1.7440 -1.1362
15937SOL    HW249253   2.099   2.334   0.049  1.4072 -0.4604  0.0563
15938SOL     OW49254   3.149   1.432   1.036 -0.0284  0.1564  0.4114
15938SOL    HW149255   3.193   1.454   1.119  1.2524  0.7272 -0.3754
15938SOL    HW249256   3.199   1.480   0.970  0.4236 -2.0868 -0.9693
15939SOL     OW49257   6.887   6.132   3.700 -0.5117  0.4460  0.8518
15939SOL    HW149258   6.870   6.041   3.677  3.5068 -0.9872  2.5502
15939SOL    HW249259   6.911   6.174   3.617  0.2603 -0.8307  0.4046
15940SOL     OW49260   2.497   4.109   7.838 -0.3732 -0.7478  0.6315
15940SOL    HW149261   2.479   4.029   7.887  0.4448  0.4608  3.0284
15940SOL    HW249262   2.593   4.111   7.830 -0.3852  0.0336  0.6614
15941SOL     OW49263   6.518   2.536   2.117 -0.1826  0.2193  0.2265
15941SOL    HW149264   6.463   2.486   2.056  1.0189 -0.8694 -0.0202
15941SOL    HW249265   6.456   2.588   2.168 -1.4934 -1.3907  0.3667
15942SOL     OW49266   4.375   1.638   2.597  0.8541 -0.0293 -0.2298
15942SOL    HW149267   4.359   1.732   2.598 -0.9021 -0.2342 -2.1070
15942SOL    HW249268   4.326   1.604   2.672 -0.3859  0.3470 -0.8390
15943SOL     OW49269   4.193   4.709   1.764 -0.4465 -0.0719  0.0310
15943SOL    HW149270   4.208   4.631   1.817  0.6569 -0.3189 -0.6155
15943SOL    HW249271   4.167   4.676   1.679  0.4339  0.2332 -0.3713
15944SOL     OW49272   0.238   2.635   5.275  0.0538 -0.0378 -0.0941
15944SOL    HW149273   0.254   2.687   5.354 -1.6383  2.5536 -1.3365
15944SOL    HW249274   0.322   2.636   5.229  0.0872  1.5910 -0.0527
15945SOL     OW49275   5.984   2.723   4.099 -0.4950 -0.3945  0.0622
15945SOL    HW149276   5.977   2.723   4.194  0.2457 -0.5831  0.1177
15945SOL    HW249277   5.895   2.742   4.069 -0.6468  0.0873  0.7952
15946SOL     OW49278   1.045   4.867   0.802 -0.0963  0.7044 -0.3933
15946SOL    HW149279   0.961   4.893   0.840  0.0742  0.5182  0.1232
15946SOL    HW249280   1.048   4.912   0.718 -0.5786  0.9572 -0.2808
15947SOL     OW49281   2.695   7.778   2.441  0.2964 -0.1693 -0.1377
15947SOL    HW149282   2.622   7.724   2.411  0.7770  0.1844 -2.0269
15947SOL    HW249283   2.711   7.748   2.531 -1.4346 -1.0072 -0.0648
15948SOL     OW49284   6.274   1.178   0.040  0.3070  0.0767  0.4026
15948SOL    HW149285   6.263   1.273   0.048  0.9434  0.3859 -1.7937
15948SOL    HW249286   6.184   1.144   0.037  0.0128  0.8810 -1.0902
15949SOL     OW49287   2.087   3.584   2.351 -0.2639  0.0944  0.4708
15949SOL    HW149288   2.050   3.535   2.278  1.1041 -1.5298  0.7948
15949SOL    HW249289   2.088   3.522   2.424  0.2517  1.0467  1.3071
15950SOL     OW49290   3.856   6.138   0.091  0.0209 -0.1324 -0.5069
15950SOL    HW149291   3.834   6.046   0.106 -1.8176  0.4890  0.9033
15950SOL    HW249292   3.773   6.180   0.070  0.0681  1.8880  2.6461
15951SOL     OW49293   0.697   5.133   0.096 -0.1673 -0.1463  0.0422
15951SOL    HW149294   0.746   5.061   0.135 -0.2616 -0.8499 -1.0717
15951SOL    HW249295   0.609   5.126   0.134  0.2244  0.3016  1.0490
15952SOL     OW49296   0.570   0.653  11.929  0.0001  0.3550  0.0031
15952SOL    HW149297   0.569   0.703  11.847  0.3847  1.2224  0.5124
15952SOL    HW249298   0.638   0.696  11.982  0.9585 -1.2421  0.1299
15953SOL     OW49299   4.945   4.997   7.873 -0.4044 -0.0652  0.7246
15953SOL    HW149300   4.951   5.028   7.964  0.7464 -0.0280  0.6553
15953SOL    HW249301   4.858   5.023   7.845 -0.9723 -0.5076  1.9726
15954SOL     OW49302   5.103   7.287  11.601  0.1358 -0.4047 -0.1559
15954SOL    HW149303   5.080   7.204  11.559 -3.0290  0.0347  0.4366
15954SOL    HW249304   5.047   7.292  11.678  1.1222  1.7301  0.5187
15955SOL     OW49305   0.267   0.285  10.302 -0.3350 -0.1963  0.3758
15955SOL    HW149306   0.341   0.226  10.288 -0.7021 -1.1270  1.9686
15955SOL    HW249307   0.304   0.359  10.350 -0.0277  0.4654 -0.8711
15956SOL     OW49308   3.044   3.078   7.366 -0.1857 -0.1680 -0.2488
15956SOL    HW149309   3.055   3.164   7.326  0.4979  0.9505  2.1522
15956SOL    HW249310   3.091   3.084   7.450 -0.9579 -2.5574  0.4451
15957SOL     OW49311   6.022   0.466   6.546  0.2931  0.7056 -0.2119
15957SOL    HW149312   6.034   0.385   6.496  0.1238 -0.7514  1.9461
15957SOL    HW249313   5.930   0.488   6.535  0.0683 -0.0544  0.0610
15958SOL     OW49314   2.645   3.613   5.863  0.1005 -0.4207 -0.1218
15958SOL    HW149315   2.672   3.614   5.954 -0.5183 -0.2176  0.0667
15958SOL    HW249316   2.726   3.621   5.813  0.4845 -1.0377  0.3966
15959SOL     OW49317   7.557   7.129   6.100 -0.6956 -0.5959 -0.1935
15959SOL    HW149318   7.595   7.203   6.053 -1.4639 -0.1330 -0.1094
15959SOL    HW249319   7.585   7.141   6.191 -1.7013  0.2009  0.0228
15960SOL     OW49320   5.459   7.450   7.718  0.0158 -0.5242  0.1045
15960SOL    HW149321   5.538   7.463   7.665  0.3954  1.3662  1.0586
15960SOL    HW249322   5.399   7.519   7.691 -0.4459 -0.5766  0.9334
15961SOL     OW49323   7.609   4.433  11.919  0.3105 -0.2931 -0.6433
15961SOL    HW149324   7.548   4.406  11.987  0.4141 -1.6141 -1.0409
15961SOL    HW249325   7.568   4.511  11.879 -1.1097 -1.1235 -0.8750
15962SOL     OW49326   6.295   3.275   8.310  0.6056  0.1178 -0.8586
15962SOL    HW149327   6.257   3.336   8.373  0.9555  0.7854 -1.2911
15962SOL    HW249328   6.302   3.192   8.359  0.1078  0.4085 -0.2796
15963SOL     OW49329   3.591   6.578   8.253 -0.0898  0.1190  0.0763
15963SOL    HW149330   3.506   6.609   8.220 -0.3165 -0.8646 -0.2834
15963SOL    HW249331   3.576   6.560   8.345  0.4778  2.6309  0.7330
15964SOL     OW49332   3.900   1.220   9.251  0.2586  0.5033  0.2553
15964SOL    HW149333   3.891   1.215   9.156 -3.8776  0.7046  0.4724
15964SOL    HW249334   3.941   1.137   9.276  2.4104  0.8869 -1.6834
15965SOL     OW49335   2.566   1.668  10.644 -0.5101  0.2464 -0.4510
15965SOL    HW149336   2.647   1.627  10.613 -1.0177 -0.8088 -0.4429
15965SOL    HW249337   2.592   1.716  10.722  0.2667  0.6411 -0.9403
15966SOL     OW49338   6.328   2.710   9.656 -0.4635 -0.6603  0.1440
15966SOL    HW149339   6.355   2.796   9.624 -0.9026 -1.1140 -1.5557
15966SOL    HW249340   6.352   2.649   9.586 -1.1014 -1.7842  0.8644
15967SOL     OW49341   0.501   7.135   4.991  0.1853  0.3931  0.2530
15967SOL    HW149342   0.513   7.165   4.901  0.6190 -0.5155  0.0061
15967SOL    HW249343   0.547   7.051   4.996 -2.3277 -1.0770  0.4728
15968SOL     OW49344   3.623   4.892  11.263  0.0052  0.4041 -0.1628
15968SOL    HW149345   3.593   4.894  11.172 -2.3271  0.6083  0.5287
15968SOL    HW249346   3.612   4.982  11.293 -1.3888 -0.0755  0.8916
15969SOL     OW49347   7.018   7.201   8.992  0.4122  0.1464 -0.0110
15969SOL    HW149348   7.075   7.169   8.922 -0.7162 -0.3795 -0.7183
15969SOL    HW249349   7.055   7.286   9.016  2.0680 -0.6121  0.2510
15970SOL     OW49350   2.443   5.606  10.431  0.2165 -0.1013  0.5444
15970SOL    HW149351   2.495   5.619  10.351 -0.6718 -0.5208 -0.1188
15970SOL    HW249352   2.394   5.687  10.441 -1.3801 -0.8766 -0.6394
15971SOL     OW49353   0.908   0.437   6.698  0.1214 -0.1746  0.4334
15971SOL    HW149354   0.865   0.475   6.622  1.3785  1.2788  0.4083
15971SOL    HW249355   0.881   0.345   6.697 -4.0301  0.8332  1.1999
15972SOL     OW49356   1.972   2.770   6.818  0.0472  0.3877 -0.1054
15972SOL    HW149357   1.911   2.842   6.831  1.2343  1.5260 -0.6481
15972SOL    HW249358   2.007   2.784   6.730  0.8785 -0.4181  0.0870
15973SOL     OW49359   3.619   1.667   5.134 -0.3141 -0.4569 -0.2382
15973SOL    HW149360   3.657   1.618   5.206 -1.6970 -1.3134 -0.0637
15973SOL    HW249361   3.626   1.759   5.161  0.1509 -0.6996  0.4954
15974SOL     OW49362   6.484   2.163   2.834 -0.4334  0.6477 -0.5479
15974SOL    HW149363   6.392   2.188   2.832 -0.2127  1.6918  0.7161
15974SOL    HW249364   6.530   2.237   2.792 -0.0378  0.9698  0.4172
15975SOL     OW49365   0.412   5.352   9.230  0.1144 -0.1192 -0.3897
15975SOL    HW149366   0.392   5.353   9.136  1.7818 -1.1516 -0.7942
15975SOL    HW249367   0.391   5.263   9.258  0.8726 -0.2040 -0.0763
15976SOL     OW49368   6.378   5.047   8.151  0.1145 -0.2240 -0.1010
15976SOL    HW149369   6.297   5.011   8.115  0.4213 -0.6456 -0.3734
15976SOL    HW249370   6.349   5.120   8.207 -0.3835  0.2491 -0.9551
15977SOL     OW49371   4.744   4.501  10.853 -0.2895 -0.2768  0.4226
15977SOL    HW149372   4.649   4.505  10.840 -0.3431 -2.1366  0.0168
15977SOL    HW249373   4.757   4.428  10.914  0.9332 -0.5842 -0.1833
15978SOL     OW49374   3.310   7.874  10.802  0.1201 -0.0600  0.4963
15978SOL    HW149375   3.254   7.820  10.746  0.1732  1.0693 -0.6961
15978SOL    HW249376   3.264   7.958  10.807  0.3229 -0.0173  1.8390
15979SOL     OW49377   4.932   6.854   1.414 -0.5928 -0.3409 -0.3967
15979SOL    HW149378   4.861   6.881   1.356 -0.6357 -2.1397 -1.2541
15979SOL    HW249379   4.927   6.758   1.415 -0.1675 -0.3943  2.0832
15980SOL     OW49380   1.078   4.233   0.690  0.0790  0.1730 -0.2964
15980SOL    HW149381   1.124   4.276   0.619  0.1314 -1.5299 -1.3661
15980SOL    HW249382   1.024   4.166   0.647  0.4176 -1.1875  1.2629
15981SOL     OW49383   7.765   4.824  11.586 -0.4307 -0.5219  0.3245
15981SOL    HW149384   7.671   4.829  11.568 -0.3450 -1.2301 -0.3717
15981SOL    HW249385   7.790   4.736  11.559  0.3016 -0.5960  1.1795
15982SOL     OW49386   4.419   4.324   5.399  0.1245 -0.0100 -0.4834
15982SOL    HW149387   4.402   4.266   5.325  2.7258 -1.0499 -0.3658
15982SOL    HW249388   4.499   4.371   5.376  2.2734 -1.8858  2.3968
15983SOL     OW49389   4.805   1.117   6.237  0.1102  0.3421  0.2427
15983SOL    HW149390   4.896   1.125   6.207 -0.0648  2.2641  0.0971
15983SOL    HW249391   4.792   1.193   6.294 -1.4244  0.1358  0.2000
15984SOL     OW49392   3.391   5.364   0.271  0.6481  0.2329  0.2612
15984SOL    HW149393   3.441   5.283   0.286 -0.3819 -0.2526  1.2409
15984SOL    HW249394   3.450   5.434   0.299  1.3275 -0.2147 -0.0221
15985SOL     OW49395   7.292   6.688   3.176 -0.3034  0.5247  0.4144
15985SOL    HW149396   7.210   6.736   3.165  0.9804  2.5678 -0.8253
15985SOL    HW249397   7.353   6.728   3.114  1.8681 -0.4211  1.7788
15986SOL     OW49398   4.814   1.551   6.865 -0.0164  0.2632 -0.0340
15986SOL    HW149399   4.810   1.467   6.820 -2.3064 -1.9992  3.8310
15986SOL    HW249400   4.723   1.580   6.871  0.3592  1.2704  1.6078
15987SOL     OW49401   2.254   5.294   8.772  0.1970 -0.5537  0.0354
15987SOL    HW149402   2.301   5.375   8.792  1.7781 -1.7129  1.2309
15987SOL    HW249403   2.317   5.241   8.722 -0.5263 -1.3653 -0.0397
15988SOL     OW49404   2.371   6.754   4.014 -0.8748 -0.1242 -0.7633
15988SOL    HW149405   2.368   6.846   3.987  0.8882  0.0311 -0.5487
15988SOL    HW249406   2.390   6.706   3.933  0.3664 -0.0603 -0.5290
15989SOL     OW49407   4.986   2.802   7.508  0.2480 -0.7635  0.3263
15989SOL    HW149408   4.988   2.707   7.519  0.5911 -1.2553 -2.9763
15989SOL    HW249409   5.077   2.826   7.488 -0.4601 -0.5031 -3.1479
15990SOL     OW49410   3.408   5.691   9.513 -0.9843  0.3531  0.1888
15990SOL    HW149411   3.413   5.596   9.510  1.5602  0.4164  0.1936
15990SOL    HW249412   3.364   5.716   9.432 -1.9473 -0.8159  0.3330
15991SOL     OW49413   0.653   5.478   7.444 -0.2166  0.0377  0.0834
15991SOL    HW149414   0.727   5.526   7.406 -0.5548  0.5400  0.0417
15991SOL    HW249415   0.583   5.544   7.449 -0.9309 -0.6427 -0.6753
15992SOL     OW49416   1.249   6.500   3.029  0.3722 -0.4971 -0.0972
15992SOL    HW149417   1.309   6.570   3.053 -0.2097  0.4743 -1.3571
15992SOL    HW249418   1.300   6.442   2.973  0.8414 -1.0910  0.9112
15993SOL     OW49419   0.466   1.492  12.347  0.1983  0.5195  0.1271
15993SOL    HW149420   0.412   1.413  12.355 -0.7193  0.8943 -1.8019
15993SOL    HW249421   0.418   1.559  12.396 -0.4472  0.5392 -0.5258
15994SOL     OW49422   4.682   6.985   3.769 -0.2866  0.0518 -0.0130
15994SOL    HW149423   4.639   6.907   3.804 -0.6474  0.0677 -0.4085
15994SOL    HW249424   4.676   6.975   3.674  0.9648 -0.1540 -0.0924
15995SOL     OW49425   7.775   6.119   2.742 -0.1772 -0.2308 -0.0900
15995SOL    HW149426   7.867   6.115   2.716 -0.1681 -0.4000 -0.0334
15995SOL    HW249427   7.765   6.049   2.806 -0.4130 -0.3941 -0.3016
15996SOL     OW49428   0.346   6.016   8.867  0.0759  0.3756 -0.2692
15996SOL    HW149429   0.419   5.985   8.921  0.4414  0.1653 -0.8788
15996SOL    HW249430   0.374   6.103   8.838 -0.9153  1.2910  1.3804
15997SOL     OW49431   2.926   3.344   7.425 -0.2880  0.2158  0.1357
15997SOL    HW149432   2.834   3.370   7.414 -0.0895  0.6953 -0.4011
15997SOL    HW249433   2.962   3.409   7.484 -0.2760  0.0463  0.3188
15998SOL     OW49434   6.429   0.018   9.325 -0.1224 -0.2358  0.1347
15998SOL    HW149435   6.356  -0.017   9.376 -1.0824 -0.7826 -1.5418
15998SOL    HW249436   6.483   0.063   9.389 -0.9914 -1.3324  1.7127
15999SOL     OW49437   0.376   3.247   9.315 -0.6208 -0.4601 -0.2444
15999SOL    HW149438   0.346   3.169   9.360  0.9504 -1.1549 -0.3327
15999SOL    HW249439   0.352   3.232   9.223 -0.4157 -0.7907 -0.2448
16000SOL     OW49440   7.056   1.036  11.284 -0.2314  0.3915 -0.7432
16000SOL    HW149441   7.135   1.028  11.230  0.6645 -1.0332  0.6736
16000SOL    HW249442   7.066   0.968  11.351 -2.1323  0.9328  0.1610
16001SOL     OW49443   4.530   5.671   9.209  0.3936  0.1056  0.0578
16001SOL    HW149444   4.542   5.705   9.298  2.8676 -2.0414  0.6748
16001SOL    HW249445   4.462   5.604   9.219  0.7115 -0.1777  0.3540
16002SOL     OW49446   4.326   6.193   9.673 -0.0852  0.5113 -0.0962
16002SOL    HW149447   4.327   6.185   9.578  0.6466 -1.8160  0.0335
16002SOL    HW249448   4.252   6.138   9.701  0.6938 -0.1623  0.7224
16003SOL     OW49449   0.516   0.311   0.008  0.1182 -0.2358  0.4947
16003SOL    HW149450   0.441   0.327  -0.049 -0.4321  0.3698  1.3581
16003SOL    HW249451   0.479   0.270   0.086  0.9350 -1.5612  0.2055
16004SOL     OW49452   2.540   1.430   4.925  0.0835 -0.3814  0.3877
16004SOL    HW149453   2.498   1.470   5.001  1.0712 -1.1635  1.3862
16004SOL    HW249454   2.576   1.348   4.959  1.5018 -0.2239 -0.6756
16005SOL     OW49455   0.802   0.345  12.200 -0.1338 -0.4423 -0.1707
16005SOL    HW149456   0.879   0.358  12.145  0.0621  4.2736  0.8480
16005SOL    HW249457   0.728   0.344  12.138  0.3144  1.5943 -0.7826
16006SOL     OW49458   2.687   7.041   0.191 -0.0156 -0.5599  1.0094
16006SOL    HW149459   2.761   7.057   0.133 -1.3241 -0.9972 -0.8466
16006SOL    HW249460   2.610   7.054   0.137 -1.3297 -0.3791  2.8211
16007SOL     OW49461   2.609   1.468  10.341  0.2553 -0.4804 -0.2451
16007SOL    HW149462   2.548   1.396  10.329  0.9223 -0.9572 -0.8557
16007SOL    HW249463   2.556   1.539  10.376 -0.0902 -1.8812  2.3830
16008SOL     OW49464   0.188   3.059   1.608 -0.1492  0.3486  0.0553
16008SOL    HW149465   0.223   3.136   1.564 -1.2314  1.2230  0.7046
16008SOL    HW249466   0.093   3.068   1.602 -0.3151 -1.3923 -0.6330
16009SOL     OW49467   2.909   7.316  10.455  0.0356  0.4346  0.1486
16009SOL    HW149468   2.845   7.252  10.486  0.9710 -0.3667  0.4581
16009SOL    HW249469   2.948   7.276  10.377  0.6828  0.5879  0.3876
16010SOL     OW49470   0.021   0.707   3.330  0.3446  0.0470 -0.0834
16010SOL    HW149471  -0.042   0.694   3.259 -0.3507 -0.3481  0.5922
16010SOL    HW249472  -0.006   0.645   3.398  1.0012  0.4119  0.5261
16011SOL     OW49473   3.143   1.092   0.794  0.7147  0.4640 -0.6543
16011SOL    HW149474   3.087   1.148   0.741 -1.0458 -1.0078 -0.4708
16011SOL    HW249475   3.206   1.055   0.732  0.5183  0.9850 -1.1699
16012SOL     OW49476   4.036   4.927   9.233  0.5472  0.2372 -0.1944
16012SOL    HW149477   4.023   4.832   9.226 -0.9005  0.4279 -0.2850
16012SOL    HW249478   4.010   4.960   9.147  0.4120  0.7882  0.0596
16013SOL     OW49479   0.131   2.585  12.459  0.2552  0.7177 -0.1816
16013SOL    HW149480   0.104   2.502  12.499 -1.3413  1.4087  0.2486
16013SOL    HW249481   0.222   2.597  12.487  0.1110 -0.2784  0.7727
16014SOL     OW49482   7.666   6.379   8.816 -0.4057 -0.2287  0.5198
16014SOL    HW149483   7.750   6.334   8.827 -0.2530 -0.5101 -1.4690
16014SOL    HW249484   7.688   6.472   8.826 -0.0141 -0.3488  0.8277
16015SOL     OW49485   2.620   4.088  11.649  0.5915  0.2177  0.4951
16015SOL    HW149486   2.617   3.996  11.675 -0.4951  0.5156  1.4971
16015SOL    HW249487   2.693   4.093  11.587  0.9864 -1.2137  0.8111
16016SOL     OW49488   6.797   3.256  11.721 -0.5059 -0.5804  0.4657
16016SOL    HW149489   6.703   3.260  11.702 -1.3247 -1.2775  3.8482
16016SOL    HW249490   6.804   3.273  11.815  2.4885 -3.0502  0.8447
16017SOL     OW49491   4.343   6.341   6.331 -0.2255  0.3866 -0.3675
16017SOL    HW149492   4.276   6.402   6.299 -0.7376  0.1395  0.2068
16017SOL    HW249493   4.422   6.363   6.281 -0.6712  0.8464 -0.8782
16018SOL     OW49494   7.551   0.793   9.202 -0.0131  0.4805  0.1324
16018SOL    HW149495   7.620   0.858   9.215 -1.4829  2.0058  0.6613
16018SOL    HW249496   7.552   0.740   9.282  0.0938  0.9464  0.4425
16019SOL     OW49497   1.396   3.172   0.796 -0.1210 -0.4511 -0.3717
16019SOL    HW149498   1.335   3.213   0.734 -1.3604 -1.7397 -0.0453
16019SOL    HW249499   1.340   3.123   0.856  1.2737 -2.1359 -0.3860
16020SOL     OW49500   2.609   2.047  10.046 -0.0224 -0.6342  0.5130
16020SOL    HW149501   2.589   2.098   9.968 -0.1835  0.5892  1.3182
16020SOL    HW249502   2.674   1.983  10.017  0.4300  0.2372 -0.4726
16021SOL     OW49503   3.868   0.599   6.291 -0.0716  0.3008  0.0485
16021SOL    HW149504   3.822   0.515   6.295 -2.4228  1.3470 -2.3285
16021SOL    HW249505   3.923   0.593   6.213  0.9559  0.4587  0.7368
16022SOL     OW49506   5.277   0.746   7.184  0.1941 -0.6026 -0.0636
16022SOL    HW149507   5.319   0.755   7.270 -2.6072 -0.2375  1.3697
16022SOL    HW249508   5.305   0.823   7.135 -2.0236  1.9616  2.3812
16023SOL     OW49509   4.265   4.182   1.232 -0.5188 -0.5173  0.7155
16023SOL    HW149510   4.330   4.119   1.263 -0.6497 -0.4133  1.2222
16023SOL    HW249511   4.301   4.267   1.256 -1.0307 -0.4788  1.4050
16024SOL     OW49512   1.162   0.138   9.123  0.4117  0.3493  0.1506
16024SOL    HW149513   1.216   0.087   9.183 -1.0758 -0.5167  0.7992
16024SOL    HW249514   1.091   0.079   9.099 -0.3102  1.4973 -0.5932
16025SOL     OW49515   1.515   5.428  11.069 -0.4981 -0.2293  0.0905
16025SOL    HW149516   1.464   5.368  11.124 -0.7776 -1.1784 -1.1497
16025SOL    HW249517   1.606   5.400  11.081 -0.6442 -1.0500 -0.6242
16026SOL     OW49518   4.335   2.532   9.320 -0.3118 -0.0127 -0.4801
16026SOL    HW149519   4.287   2.611   9.298  0.8016  0.3741 -1.6200
16026SOL    HW249520   4.267   2.465   9.330 -1.3067  1.1421  0.9511
16027SOL     OW49521   7.587   0.444   0.410  0.0727  0.2241  0.5757
16027SOL    HW149522   7.599   0.388   0.487 -2.1663  0.0350  0.8466
16027SOL    HW249523   7.560   0.529   0.445 -2.8404 -0.3816  0.0528
16028SOL     OW49524   7.065   4.059   4.486 -0.4883  0.2032  0.0195
16028SOL    HW149525   7.060   4.016   4.401  0.4368  1.7045 -0.8313
16028SOL    HW249526   7.125   4.132   4.473 -1.3000  1.2170  1.6415
16029SOL     OW49527   6.015   3.187   4.450  0.0821  0.4342 -0.0923
16029SOL    HW149528   6.074   3.224   4.385  0.2704 -1.4391 -1.0627
16029SOL    HW249529   5.927   3.212   4.419  0.1221 -1.1151 -1.5763
16030SOL     OW49530   6.395   7.905   3.525 -0.1472 -0.2110 -0.1283
16030SOL    HW149531   6.464   7.954   3.479 -0.0074  1.2112  1.4966
16030SOL    HW249532   6.438   7.825   3.555  0.4446  0.0612 -0.2305
16031SOL     OW49533   5.756   6.709   8.742  0.3714  0.2803  0.4843
16031SOL    HW149534   5.738   6.648   8.671 -0.1989  0.5993  0.3415
16031SOL    HW249535   5.810   6.778   8.702 -0.4013  0.7409  0.2140
16032SOL     OW49536   3.070   3.092   2.246 -0.2282  0.7294  0.4541
16032SOL    HW149537   3.136   3.120   2.309  1.1000  0.0031 -0.5408
16032SOL    HW249538   3.084   2.997   2.237 -2.3706  0.2823  1.2679
16033SOL     OW49539   3.538   5.336   7.818 -0.4843  0.0682 -0.1596
16033SOL    HW149540   3.485   5.381   7.883 -0.9565  1.4394 -1.4497
16033SOL    HW249541   3.624   5.378   7.823 -0.0409 -0.8913  0.6354
16034SOL     OW49542   1.453   3.259   4.678 -0.6817 -0.3306 -0.1688
16034SOL    HW149543   1.539   3.303   4.679  0.0501 -1.6851  1.3218
16034SOL    HW249544   1.452   3.213   4.594  0.4510 -1.0009  0.1567
16035SOL     OW49545   0.760   6.965   8.979  0.5144 -0.0894  0.1210
16035SOL    HW149546   0.813   6.889   8.953  1.9245  0.8462  0.1329
16035SOL    HW249547   0.714   6.936   9.058  0.6888 -1.0681 -0.1169
16036SOL     OW49548   0.465   4.269   7.633  0.2435  0.3704 -0.3951
16036SOL    HW149549   0.435   4.180   7.652  1.2734 -0.2681 -1.6293
16036SOL    HW249550   0.385   4.320   7.622 -0.3728 -0.6983 -0.9619
16037SOL     OW49551   5.796   2.313   0.554 -0.3184  0.3952 -0.2131
16037SOL    HW149552   5.818   2.253   0.483 -1.5538  0.5521 -0.7555
16037SOL    HW249553   5.856   2.386   0.544 -0.2768  0.2681 -0.8990
16038SOL     OW49554   5.348   6.075   0.678  0.0431  0.6852  0.2174
16038SOL    HW149555   5.291   6.125   0.737  0.0955  1.2218 -0.1753
16038SOL    HW249556   5.383   6.141   0.618 -0.0861  0.1343 -0.4694
16039SOL     OW49557   6.424   0.130   9.079 -0.0539  1.0627  0.2831
16039SOL    HW149558   6.445   0.223   9.088 -1.4267  1.3187  1.1701
16039SOL    HW249559   6.432   0.096   9.168 -1.7267  0.8346  0.3638
16040SOL     OW49560   5.881   5.651   8.851 -0.0728 -0.0602  0.2659
16040SOL    HW149561   5.893   5.584   8.917 -0.2822 -1.9355 -1.4975
16040SOL    HW249562   5.958   5.645   8.795 -0.5758  0.4595 -0.5183
16041SOL     OW49563   2.838   0.705  11.270 -0.6156  0.0462 -0.7903
16041SOL    HW149564   2.820   0.628  11.217 -0.9070  1.1107 -2.3212
16041SOL    HW249565   2.889   0.762  11.212 -0.3656  0.9760  0.3147
16042SOL     OW49566   4.202   4.486   6.507  0.2865 -0.1272 -0.2408
16042SOL    HW149567   4.270   4.429   6.469  1.1359 -0.5420  1.7630
16042SOL    HW249568   4.229   4.575   6.483  2.2556 -0.1940  1.4509
16043SOL     OW49569   1.584   3.893   3.867  0.1043 -0.1651  0.7122
16043SOL    HW149570   1.609   3.957   3.933  1.0782  0.0242  0.1721
16043SOL    HW249571   1.491   3.879   3.882  0.0334  0.8344  1.2956
16044SOL     OW49572   0.361   7.185   2.878 -0.3825  0.5414  0.2326
16044SOL    HW149573   0.407   7.172   2.961  0.2506  1.7719  0.0901
16044SOL    HW249574   0.270   7.200   2.903  0.0301  2.2942  0.8375
16045SOL     OW49575   2.843   5.771   0.991 -0.3190  0.2077  0.2362
16045SOL    HW149576   2.830   5.866   0.993  0.1251  0.2729 -0.0232
16045SOL    HW249577   2.873   5.753   0.903 -2.1060 -0.4029 -0.2966
16046SOL     OW49578   6.609   4.164   4.410 -0.1003 -0.0691 -0.0727
16046SOL    HW149579   6.682   4.145   4.469 -0.1294  0.6918  0.2178
16046SOL    HW249580   6.602   4.086   4.354  0.1664 -0.6462  0.6769
16047SOL     OW49581   1.102   7.721   0.733  0.3333  0.3059 -0.4267
16047SOL    HW149582   1.129   7.708   0.824 -0.2821  1.7380 -0.0173
16047SOL    HW249583   1.180   7.700   0.682  0.9156  0.2285  0.4688
16048SOL     OW49584   1.311   6.069   2.833  0.0389 -0.2967 -0.1338
16048SOL    HW149585   1.273   6.088   2.919 -1.6351 -0.8890 -0.7017
16048SOL    HW249586   1.393   6.023   2.852  0.7261  1.3520  1.1516
16049SOL     OW49587   0.863   0.104   3.541  0.3337 -0.0202  0.5451
16049SOL    HW149588   0.803   0.036   3.570  0.2413  0.0568  0.5365
16049SOL    HW249589   0.806   0.177   3.517  0.3339 -0.4855 -0.9515
16050SOL     OW49590   1.717   6.702   5.226 -0.0940 -0.3399  0.3750
16050SOL    HW149591   1.727   6.650   5.147 -1.1245 -0.0866  0.0626
16050SOL    HW249592   1.751   6.789   5.203 -0.4614 -0.2459  0.1873
16051SOL     OW49593   2.667   3.314   9.801  0.2174 -0.1062  0.6177
16051SOL    HW149594   2.688   3.334   9.709  0.6537  1.1215  0.9643
16051SOL    HW249595   2.726   3.243   9.825  1.1117  0.5393  0.3657
16052SOL     OW49596   4.481   2.234  11.351 -0.3046  0.3335  0.1655
16052SOL    HW149597   4.420   2.160  11.360 -0.9033  0.8125  0.1723
16052SOL    HW249598   4.424   2.308  11.330  0.2088  0.9375  0.8808
16053SOL     OW49599   6.806   7.359   6.598  0.8197  0.4132  0.4052
16053SOL    HW149600   6.739   7.364   6.667 -0.6056  2.5149 -1.0087
16053SOL    HW249601   6.844   7.447   6.595  1.4945  0.1054 -0.8765
16054SOL     OW49602   7.179   0.943  11.069 -0.8029 -0.0840  0.2466
16054SOL    HW149603   7.271   0.937  11.096 -0.3190  0.2284 -1.1959
16054SOL    HW249604   7.143   0.857  11.087 -0.9105  0.4436  2.9867
16055SOL     OW49605   5.609   7.617   6.601  0.0823 -0.1057  0.5522
16055SOL    HW149606   5.532   7.561   6.607 -0.2848  0.0841 -1.7855
16055SOL    HW249607   5.636   7.613   6.509  3.3198 -0.7662  1.3768
16056SOL     OW49608   2.196   4.077   0.870 -0.1532 -0.5499  0.1544
16056SOL    HW149609   2.184   3.992   0.912  0.9890  0.0869  1.8554
16056SOL    HW249610   2.199   4.139   0.942  0.5312  0.7663 -0.9719
16057SOL     OW49611   1.234   5.409   3.835 -0.0471  0.3711 -0.1184
16057SOL    HW149612   1.239   5.485   3.893  0.8441  1.9965 -2.1863
16057SOL    HW249613   1.319   5.366   3.844 -0.7084 -0.7135  1.3843
16058SOL     OW49614   6.551   1.623  11.391 -0.1841 -0.4688 -0.0754
16058SOL    HW149615   6.587   1.543  11.353  1.0627 -0.0035  0.0829
16058SOL    HW249616   6.573   1.617  11.484 -1.1742 -0.5095  0.1682
16059SOL     OW49617   4.979   1.673   5.648  0.1435  0.8065 -0.4438
16059SOL    HW149618   4.884   1.669   5.656  0.1620 -0.3974 -0.6122
16059SOL    HW249619   5.000   1.610   5.578  1.1686  0.0420  0.5142
16060SOL     OW49620   1.875   5.749   1.058 -0.2497  0.5637  0.2107
16060SOL    HW149621   1.787   5.749   1.021 -0.4065 -2.5876  0.2858
16060SOL    HW249622   1.871   5.811   1.131 -1.7033  2.1617 -1.1598
16061SOL     OW49623   7.850   4.428   0.901 -0.4268 -0.7704 -0.3170
16061SOL    HW149624   7.930   4.384   0.931  0.9139  1.5692 -0.2179
16061SOL    HW249625   7.784   4.359   0.901  0.8707 -2.1809  2.4097
16062SOL     OW49626   2.541   5.947  10.394  0.0813  0.0805  0.2709
16062SOL    HW149627   2.620   5.896  10.377  0.5651  0.7515  0.4588
16062SOL    HW249628   2.478   5.916  10.329  0.7338  0.0564 -0.3567
16063SOL     OW49629   2.598   1.174   5.014 -0.2933 -0.4542 -0.8212
16063SOL    HW149630   2.671   1.135   4.966 -0.0481 -0.8927 -0.1060
16063SOL    HW249631   2.548   1.099   5.046  1.6899 -0.4235  2.9525
16064SOL     OW49632   6.076   0.031   0.839 -0.1002  0.3948 -0.2535
16064SOL    HW149633   6.014   0.101   0.816  0.8002  1.0572 -0.7425
16064SOL    HW249634   6.024  -0.032   0.888 -1.4400  0.3565 -1.6298
16065SOL     OW49635   4.470   3.575  11.519  0.1007 -0.1952  0.0396
16065SOL    HW149636   4.501   3.666  11.522 -0.5534  0.0152  0.5684
16065SOL    HW249637   4.444   3.561  11.428  0.9057 -0.0970 -0.2128
16066SOL     OW49638   4.612   1.642   0.068 -0.6222 -0.1648 -0.4027
16066SOL    HW149639   4.586   1.563   0.021 -2.3977  0.3169 -0.2923
16066SOL    HW249640   4.530   1.678   0.102 -0.0950  2.5042 -1.6903
16067SOL     OW49641   2.435   0.538   5.214 -0.3578 -0.1454  0.0617
16067SOL    HW149642   2.405   0.584   5.292 -0.6915  1.0942 -0.7659
16067SOL    HW249643   2.520   0.575   5.194 -0.5444 -0.0094 -0.5103
16068SOL     OW49644   6.859   0.275   4.224  0.2589  0.0758  0.2739
16068SOL    HW149645   6.794   0.215   4.188 -0.9518  1.7984 -0.4960
16068SOL    HW249646   6.809   0.339   4.273  1.4133  1.1918  0.0456
16069SOL     OW49647   0.620   0.919   2.726 -0.6419 -0.4247  0.3464
16069SOL    HW149648   0.548   0.857   2.736  0.3341 -2.0396 -1.7836
16069SOL    HW249649   0.678   0.878   2.662  0.9510  1.9257  0.1613
16070SOL     OW49650   5.612   3.384   9.389  0.1998  0.2913  0.5199
16070SOL    HW149651   5.605   3.436   9.470  0.5530  1.5208 -0.2128
16070SOL    HW249652   5.527   3.395   9.347  0.3009  0.3451  0.3281
16071SOL     OW49653   2.949   6.468   4.016  0.1119 -0.3933 -0.0615
16071SOL    HW149654   2.967   6.562   4.015 -1.0988 -0.1387 -0.7974
16071SOL    HW249655   2.981   6.438   4.101 -1.4663  1.1032  1.1308
16072SOL     OW49656   0.324   7.572   3.924  0.1291  0.1454 -0.5358
16072SOL    HW149657   0.309   7.580   4.018 -1.3170  0.5523 -0.7805
16072SOL    HW249658   0.419   7.579   3.915  0.3883 -0.9429  0.9746
16073SOL     OW49659   4.877   4.649   4.553  0.1487  0.1317 -0.1275
16073SOL    HW149660   4.923   4.640   4.637 -1.2067  0.4685  0.6835
16073SOL    HW249661   4.844   4.739   4.554 -1.1137 -0.3109 -0.3494
16074SOL     OW49662   0.017   6.147   4.181 -0.0647 -0.3270 -0.2862
16074SOL    HW149663  -0.077   6.141   4.168  0.0127  0.6426 -1.5414
16074SOL    HW249664   0.031   6.234   4.219  0.3045 -0.5403  0.0731
16075SOL     OW49665   6.117   7.367   2.651  0.3352 -0.3880  0.7171
16075SOL    HW149666   6.106   7.356   2.745 -1.1664 -0.5913  0.5426
16075SOL    HW249667   6.053   7.435   2.627  0.4333 -0.6061 -0.2088
16076SOL     OW49668   2.177   3.201  10.664 -0.1494 -0.6021  0.5337
16076SOL    HW149669   2.226   3.119  10.671  1.5632  0.2641 -0.7657
16076SOL    HW249670   2.126   3.191  10.583  0.8707 -0.0205 -0.2106
16077SOL     OW49671   0.304   2.578   7.290  0.2852  0.0752 -0.3383
16077SOL    HW149672   0.234   2.518   7.264  0.2297  0.2975 -0.6959
16077SOL    HW249673   0.262   2.638   7.352 -0.3631  1.4627 -2.0460
16078SOL     OW49674   2.013   0.488   8.301  0.5474  0.3054 -0.3953
16078SOL    HW149675   1.994   0.512   8.392  0.8185  0.7464 -0.4536
16078SOL    HW249676   1.932   0.508   8.254 -0.4165 -2.0681  0.1219
16079SOL     OW49677   7.547   7.302  11.230  0.2214 -0.2377  0.0555
16079SOL    HW149678   7.515   7.236  11.291 -3.1818  1.2048  0.0718
16079SOL    HW249679   7.485   7.299  11.157  0.4175  2.3235 -0.3055
16080SOL     OW49680   4.895   1.565   1.663  0.3059 -0.4802  0.2738
16080SOL    HW149681   4.977   1.582   1.617  0.6869 -1.5010  0.5592
16080SOL    HW249682   4.878   1.647   1.711 -1.1923  1.4438 -3.1687
16081SOL     OW49683   3.745   5.082  11.027  0.9416 -0.3807  0.0685
16081SOL    HW149684   3.738   5.174  11.004  0.5157 -0.7145 -1.2540
16081SOL    HW249685   3.659   5.060  11.064  1.0593 -0.2318  0.4269
16082SOL     OW49686   3.461   5.791   7.438 -0.0894  0.3023  0.3004
16082SOL    HW149687   3.535   5.821   7.492  0.1013  0.8735 -0.2709
16082SOL    HW249688   3.436   5.708   7.477  0.1710  0.6147  1.1602
16083SOL     OW49689   0.276   1.636  11.829 -0.5359  0.2074 -0.9209
16083SOL    HW149690   0.327   1.716  11.817  1.1471 -0.6191  0.1944
16083SOL    HW249691   0.267   1.599  11.741  0.2007  0.7531 -1.2360
16084SOL     OW49692   5.252   3.391   3.201  0.5037  0.0146  0.9129
16084SOL    HW149693   5.280   3.381   3.292  1.0288  4.1167  1.4034
16084SOL    HW249694   5.171   3.341   3.195  1.9247 -2.8033  2.6816
16085SOL     OW49695   6.486   7.055   6.462 -0.0665  0.7046  0.5134
16085SOL    HW149696   6.418   7.016   6.407 -0.0922  0.1077  0.9671
16085SOL    HW249697   6.468   7.149   6.458  0.6774  0.8112 -1.4972
16086SOL     OW49698   4.046   1.610  10.409 -0.2363 -0.2680 -0.1892
16086SOL    HW149699   4.082   1.581  10.493 -0.8176 -0.9109 -0.1510
16086SOL    HW249700   3.991   1.538  10.380  0.8219 -0.5136 -1.6908
16087SOL     OW49701   6.444   3.657   7.467 -0.2982  0.4929 -0.3685
16087SOL    HW149702   6.348   3.652   7.468 -0.2491 -2.2755  0.2402
16087SOL    HW249703   6.469   3.634   7.378 -0.1947 -0.3856 -0.1214
16088SOL     OW49704   7.899   3.601   1.956 -0.0990  0.4712  0.0210
16088SOL    HW149705   7.831   3.618   2.022  0.7770  2.3781  0.5028
16088SOL    HW249706   7.939   3.519   1.984 -0.1450  0.9312  1.5825
16089SOL     OW49707   7.350   0.852   0.940  0.3103  0.2707 -0.0520
16089SOL    HW149708   7.365   0.766   0.901  0.9798  1.4893 -2.6532
16089SOL    HW249709   7.427   0.903   0.917 -0.7882  2.0475  0.0525
16090SOL     OW49710   3.713   5.852   8.296 -0.3051  0.7517 -0.1310
16090SOL    HW149711   3.793   5.807   8.268 -0.9319 -1.8326  1.7979
16090SOL    HW249712   3.646   5.819   8.237 -0.2947  1.3862 -0.5009
16091SOL     OW49713   7.680   3.324   5.894  0.5984  0.5187  0.4425
16091SOL    HW149714   7.727   3.242   5.912  0.0585  0.3085  0.9284
16091SOL    HW249715   7.657   3.319   5.802 -2.1914 -1.3623  1.1275
16092SOL     OW49716   2.370   4.383   1.043  0.0654 -0.5778  0.2339
16092SOL    HW149717   2.435   4.440   1.084  1.1895 -1.6005 -0.0937
16092SOL    HW249718   2.372   4.303   1.094 -0.0721 -1.0669 -0.5165
16093SOL     OW49719   6.463   4.081   5.316  0.2043 -1.0700 -0.5454
16093SOL    HW149720   6.442   4.067   5.409  0.5617  0.1714 -0.2570
16093SOL    HW249721   6.555   4.054   5.309  0.7471  0.5722 -0.0984
16094SOL     OW49722   0.262   7.491  11.414 -0.1398 -0.5288  0.0874
16094SOL    HW149723   0.357   7.504  11.413 -0.2333  0.5018 -2.3037
16094SOL    HW249724   0.239   7.494  11.507  2.1909 -1.3052  0.7759
16095SOL     OW49725   3.736   3.509  10.277 -0.3117 -0.9478  0.0694
16095SOL    HW149726   3.802   3.506  10.346  0.3033 -0.4652 -0.4766
16095SOL    HW249727   3.665   3.561  10.314  1.0055  1.3855 -0.4260
16096SOL     OW49728   2.478   0.637   6.849 -0.2931  0.2233 -0.1119
16096SOL    HW149729   2.390   0.674   6.847 -0.7054 -0.7060  0.4709
16096SOL    HW249730   2.481   0.586   6.929  0.2805 -0.9710 -0.8739
16097SOL     OW49731   7.558   1.250   1.898 -0.4796 -0.3293  0.2843
16097SOL    HW149732   7.578   1.222   1.988  1.4103 -0.6627 -0.1868
16097SOL    HW249733   7.636   1.298   1.871 -0.4785 -1.3418 -1.6181
16098SOL     OW49734   7.478   2.046   7.314  0.1141 -0.3563 -0.1099
16098SOL    HW149735   7.444   2.031   7.402 -1.0245 -0.4020 -0.5427
16098SOL    HW249736   7.536   1.972   7.297  2.9572  1.2372  1.8084
16099SOL     OW49737   5.433   4.202   9.312 -0.0663  0.1742 -0.8450
16099SOL    HW149738   5.437   4.287   9.270 -0.3298  0.0737 -1.0784
16099SOL    HW249739   5.403   4.142   9.243 -0.8069  0.0668 -0.4468
16100SOL     OW49740   6.646   5.824   6.977  0.2742 -0.4492 -0.2736
16100SOL    HW149741   6.655   5.769   7.055  0.3449  1.6639  1.2983
16100SOL    HW249742   6.717   5.796   6.919  0.9747 -1.2646  0.9262
16101SOL     OW49743   7.187   7.729   6.327  0.4267 -0.0566  0.0963
16101SOL    HW149744   7.176   7.734   6.232 -0.3793  1.2760  0.2399
16101SOL    HW249745   7.223   7.815   6.351 -4.1318  1.7175  1.5574
16102SOL     OW49746   6.386   3.542  10.330  0.3646 -0.0257  0.5760
16102SOL    HW149747   6.428   3.484  10.266 -1.7164 -0.0635 -0.8370
16102SOL    HW249748   6.390   3.493  10.413 -0.4907 -1.8056 -0.3807
16103SOL     OW49749   7.310   6.192   8.521 -0.0442 -0.9727  0.3535
16103SOL    HW149750   7.350   6.247   8.454  0.2536 -0.5285  0.8894
16103SOL    HW249751   7.383   6.163   8.576 -0.6510  2.6427  3.4592
16104SOL     OW49752   5.598   1.436   5.876 -0.5494  0.3024  0.1154
16104SOL    HW149753   5.634   1.351   5.850  0.2234  1.1171 -1.6956
16104SOL    HW249754   5.523   1.415   5.931 -0.0426 -1.5347  0.1736
16105SOL     OW49755   0.772   7.709   5.559 -0.2994  0.5275  0.4599
16105SOL    HW149756   0.741   7.702   5.469 -1.2043  1.7003  0.6508
16105SOL    HW249757   0.863   7.737   5.551 -0.8352  2.2249 -0.1089
16106SOL     OW49758   7.748   0.308   6.430 -0.0752 -0.0386  0.1960
16106SOL    HW149759   7.729   0.215   6.418  0.4497 -0.4299  2.0956
16106SOL    HW249760   7.672   0.353   6.394 -0.2663 -1.1879 -0.8951
16107SOL     OW49761   0.088   1.322   7.418 -0.1762 -0.7038 -0.1777
16107SOL    HW149762   0.156   1.379   7.381 -0.3829  0.4275  1.1009
16107SOL    HW249763   0.034   1.381   7.471 -0.3968 -2.0899  1.1993
16108SOL     OW49764   0.915   2.162   5.725 -0.0273  0.5646  0.0302
16108SOL    HW149765   0.865   2.081   5.712  0.3759 -0.1519  2.5503
16108SOL    HW249766   0.881   2.222   5.658  0.1971 -1.8752 -2.4424
16109SOL     OW49767   5.453   3.901   6.391 -0.5795  0.0713  0.0791
16109SOL    HW149768   5.462   3.943   6.305  0.4101  3.1782  1.5133
16109SOL    HW249769   5.511   3.825   6.387  2.4748  2.2619 -0.9043
16110SOL     OW49770   5.509   3.465   7.077 -0.1914 -0.5760 -0.4141
16110SOL    HW149771   5.440   3.485   7.141  0.2571  1.6213 -0.5456
16110SOL    HW249772   5.477   3.502   6.995  1.4547  1.2717 -0.2932
16111SOL     OW49773   0.636   4.012  11.123  0.2702 -0.2148 -0.2595
16111SOL    HW149774   0.688   3.953  11.178 -1.1759 -1.2513  0.0708
16111SOL    HW249775   0.686   4.020  11.042  2.2325  0.9847  1.0031
16112SOL     OW49776   1.009   4.444   0.332  0.1414  0.0756  0.0352
16112SOL    HW149777   0.952   4.435   0.409 -0.4587 -0.6091 -0.4751
16112SOL    HW249778   0.950   4.437   0.257  0.8104  0.0117 -0.4987
16113SOL     OW49779   6.175   6.064   9.438  0.1081  0.4634  0.2386
16113SOL    HW149780   6.218   6.019   9.365 -0.8433  1.6466 -1.0969
16113SOL    HW249781   6.087   6.025   9.442 -1.1922  2.9136 -1.7555
16114SOL     OW49782   0.163   3.055   7.702  0.5076  0.5103 -0.1023
16114SOL    HW149783   0.256   3.067   7.680  0.8708  0.9362  1.5279
16114SOL    HW249784   0.118   3.059   7.618  1.8539  1.3698 -0.8217
16115SOL     OW49785   6.068   5.845   4.998 -0.0985 -0.1558  0.1820
16115SOL    HW149786   6.022   5.927   4.978  0.4117  0.1486  0.2341
16115SOL    HW249787   6.049   5.829   5.090 -1.6540 -1.0464 -0.2636
16116SOL     OW49788   0.281   2.904   5.789  0.5028 -0.2573 -0.0103
16116SOL    HW149789   0.329   2.851   5.853  0.1809  0.9663  1.2927
16116SOL    HW249790   0.212   2.846   5.758  0.7443 -0.9261  0.6625
16117SOL     OW49791   7.844   3.437   6.899 -0.1353 -0.3659 -0.4803
16117SOL    HW149792   7.908   3.507   6.899 -1.8084  1.2607 -0.9236
16117SOL    HW249793   7.841   3.407   6.808  0.3497 -0.8210 -0.3533
16118SOL     OW49794   6.135   1.242   7.166 -0.6448 -0.6005  0.1945
16118SOL    HW149795   6.199   1.260   7.096 -1.3244 -1.7971 -0.7739
16118SOL    HW249796   6.103   1.329   7.191 -1.7859 -0.1858 -2.3324
16119SOL     OW49797   1.856   1.257  10.845 -0.0800 -0.0356 -0.3015
16119SOL    HW149798   1.821   1.176  10.807 -0.7239  0.4594 -0.7850
16119SOL    HW249799   1.940   1.270  10.799  1.4849 -1.9316  1.7922
16120SOL     OW49800   3.475   0.576   6.495 -0.5661  0.0179  0.0662
16120SOL    HW149801   3.522   0.557   6.576  0.7254  1.7903 -0.1852
16120SOL    HW249802   3.417   0.649   6.517  1.1605  1.8192 -0.9276
16121SOL     OW49803   6.675   3.466   1.301 -0.5990  0.2660  0.3437
16121SOL    HW149804   6.609   3.531   1.278  0.8895  1.7544  0.0568
16121SOL    HW249805   6.731   3.511   1.365  0.4404 -0.7416  0.1666
16122SOL     OW49806   1.264   0.224   2.297 -0.4342 -0.0094 -0.0634
16122SOL    HW149807   1.338   0.284   2.303 -0.0575 -0.4998  0.3143
16122SOL    HW249808   1.219   0.232   2.381 -2.5571  2.4537 -1.3079
16123SOL     OW49809   0.313   3.304   5.505  0.6414  0.8091  0.2414
16123SOL    HW149810   0.381   3.371   5.514  0.8152  0.4843  1.4634
16123SOL    HW249811   0.231   3.351   5.520  0.7337  0.8361  0.6712
16124SOL     OW49812   3.575   4.240   9.899  0.4719 -0.1937 -0.0647
16124SOL    HW149813   3.497   4.206   9.855  0.6532  0.5765 -1.0088
16124SOL    HW249814   3.569   4.205   9.988 -1.6576  0.8769  0.2915
16125SOL     OW49815   1.740   3.918   9.428  0.2745  0.1978 -0.2947
16125SOL    HW149816   1.659   3.884   9.465  0.4908  0.2245  0.2175
16125SOL    HW249817   1.802   3.916   9.501  1.2135 -1.3814 -1.0657
16126SOL     OW49818   2.014   6.505  10.457  0.3266  0.3981 -0.1373
16126SOL    HW149819   2.087   6.451  10.487  0.1767 -0.2638 -0.9062
16126SOL    HW249820   2.044   6.595  10.465  0.2516  0.2776  2.0755
16127SOL     OW49821   1.760   4.852   3.824 -0.3004  0.3738  0.3337
16127SOL    HW149822   1.747   4.759   3.805  2.2129  0.2452 -1.2468
16127SOL    HW249823   1.853   4.858   3.846 -0.4786  2.5049  0.6707
16128SOL     OW49824   0.192   2.770   0.923 -0.7861  0.0508  0.0346
16128SOL    HW149825   0.150   2.854   0.943 -0.4863 -0.0556  1.2116
16128SOL    HW249826   0.283   2.793   0.905 -0.7312 -0.0045  0.2382
16129SOL     OW49827   0.372   1.107   3.788 -0.4864  0.2918  0.3216
16129SOL    HW149828   0.439   1.175   3.789  0.7012 -0.8110 -0.7499
16129SOL    HW249829   0.417   1.027   3.815 -0.5631 -1.0818 -3.0772
16130SOL     OW49830   6.560   6.259   2.226 -0.0555 -0.0490  0.1850
16130SOL    HW149831   6.491   6.210   2.272 -0.8762 -1.5314 -2.4254
16130SOL    HW249832   6.642   6.227   2.266 -0.7141 -1.5648  0.4056
16131SOL     OW49833   7.379   6.417   3.558  0.4094 -0.0976  0.6096
16131SOL    HW149834   7.283   6.420   3.567  0.2605 -0.1020 -0.8391
16131SOL    HW249835   7.411   6.450   3.642 -0.8755  0.9610  0.7227
16132SOL     OW49836   4.330   0.664   8.044  0.0516  0.2899 -0.0726
16132SOL    HW149837   4.400   0.643   7.982 -0.8169 -0.7965 -0.7310
16132SOL    HW249838   4.368   0.731   8.101  1.2270  0.5680 -1.1236
16133SOL     OW49839   5.595   3.563   0.629 -0.2353 -0.6439  0.2514
16133SOL    HW149840   5.642   3.480   0.622  0.2387 -0.5331  1.7959
16133SOL    HW249841   5.573   3.570   0.722 -1.2122  0.4619 -0.0371
16134SOL     OW49842   4.650   4.110   6.014  0.1751  0.1723 -0.0167
16134SOL    HW149843   4.664   4.024   5.973 -0.6328  0.4874 -0.9999
16134SOL    HW249844   4.736   4.135   6.046  0.9199 -0.0011 -1.7479
16135SOL     OW49845   4.193   7.358   4.621 -0.3672 -0.6836  0.0175
16135SOL    HW149846   4.133   7.284   4.628  0.1968 -0.9817  3.2969
16135SOL    HW249847   4.174   7.412   4.698  0.1011  1.9473 -1.6131
16136SOL     OW49848   2.111   2.291   3.067 -0.7116 -0.0359  0.1197
16136SOL    HW149849   2.091   2.265   3.156 -0.4765 -0.8092 -0.0525
16136SOL    HW249850   2.199   2.257   3.050 -1.4556 -1.5001 -1.0219
16137SOL     OW49851   0.735   0.556   9.381  0.0169 -0.3415 -0.3447
16137SOL    HW149852   0.667   0.503   9.340 -1.2708  1.1060 -0.1959
16137SOL    HW249853   0.698   0.645   9.381  0.9941  0.1210  1.7312
16138SOL     OW49854   1.653   0.125   8.720  0.5885  0.1172  0.2519
16138SOL    HW149855   1.707   0.092   8.792 -0.1558 -1.2629  0.2170
16138SOL    HW249856   1.601   0.195   8.758 -1.1521 -1.8016  1.6115
16139SOL     OW49857   5.150   1.855  10.762 -0.2600  0.0218 -0.6934
16139SOL    HW149858   5.079   1.918  10.772 -0.4688 -0.5896  3.3319
16139SOL    HW249859   5.120   1.794  10.694 -1.8990  1.7979 -1.6524
16140SOL     OW49860   3.974   0.413   9.600 -0.0573 -0.5438 -0.0501
16140SOL    HW149861   4.062   0.426   9.566  0.5669 -1.3710  1.1779
16140SOL    HW249862   3.987   0.379   9.689 -1.6063 -0.6752  0.1578
16141SOL     OW49863   5.067   4.034   7.100  0.0193 -0.2242 -0.3334
16141SOL    HW149864   5.117   4.057   7.022  1.4855 -1.6910  0.1307
16141SOL    HW249865   5.123   3.975   7.148  0.4279  2.7851  3.3651
16142SOL     OW49866   3.930   2.430   3.221  0.4031  0.4291 -0.4276
16142SOL    HW149867   3.914   2.376   3.298  0.8375  0.4833 -0.2930
16142SOL    HW249868   3.934   2.368   3.148  1.9484  0.1358 -0.1322
16143SOL     OW49869   0.499   6.927  11.709  0.5332  0.0010 -0.0856
16143SOL    HW149870   0.546   6.902  11.629 -1.1815 -1.3843 -0.7181
16143SOL    HW249871   0.489   6.845  11.757 -1.2139  0.2332  0.0096
16144SOL     OW49872   3.440   6.751   4.831  0.2011  0.2252  0.2553
16144SOL    HW149873   3.469   6.796   4.752  0.5554 -1.0442 -0.3691
16144SOL    HW249874   3.406   6.820   4.887 -1.1625  1.0393 -1.4861
16145SOL     OW49875   6.398   4.239   7.456  0.1766  0.0047  0.5041
16145SOL    HW149876   6.453   4.189   7.395 -0.0289  0.3776  0.0007
16145SOL    HW249877   6.417   4.202   7.542  1.4549  0.3399  0.3821
16146SOL     OW49878   5.059   1.090  12.290  0.6800 -0.2318  0.3106
16146SOL    HW149879   5.016   1.005  12.279 -0.8585  0.4752  0.5090
16146SOL    HW249880   5.137   1.072  12.343  0.9593 -1.6621 -0.5572
16147SOL     OW49881   2.317   3.904   7.907 -0.2916 -0.1784  0.5834
16147SOL    HW149882   2.237   3.889   7.957 -0.6931  3.0521  1.1619
16147SOL    HW249883   2.383   3.851   7.951 -1.7364 -1.5794  1.1582
16148SOL     OW49884   0.474   6.735   6.684 -0.5935 -0.2940 -0.6555
16148SOL    HW149885   0.476   6.822   6.642  1.2598  0.6214  1.1712
16148SOL    HW249886   0.384   6.704   6.669 -1.0612  1.5389 -2.1014
16149SOL     OW49887   1.570   4.972  10.373  0.1928 -0.1310  0.0366
16149SOL    HW149888   1.617   5.018  10.443  1.5397 -0.1937 -0.7960
16149SOL    HW249889   1.582   4.879  10.394  0.5407 -0.1482 -0.2236
16150SOL     OW49890   2.508   3.817  12.412  0.7831  0.0766  0.4566
16150SOL    HW149891   2.586   3.761  12.413 -0.2602 -1.4894 -0.7120
16150SOL    HW249892   2.535   3.895  12.363  1.7628 -0.2068  0.5231
16151SOL     OW49893   1.607   3.292   9.785  0.4138  0.1147 -0.2357
16151SOL    HW149894   1.627   3.216   9.730  1.3789  0.2669 -0.1114
16151SOL    HW249895   1.549   3.346   9.731 -0.5960 -0.8690 -0.1896
16152SOL     OW49896   3.310   0.412   4.479  0.1153 -0.3481  0.4908
16152SOL    HW149897   3.238   0.350   4.472  0.0952 -0.2858  0.1403
16152SOL    HW249898   3.336   0.430   4.389  0.4499 -0.2307  0.6077
16153SOL     OW49899   5.140   3.123   3.399  0.4694 -0.0270  0.0008
16153SOL    HW149900   5.234   3.140   3.409  0.3028  0.6720  0.4277
16153SOL    HW249901   5.110   3.101   3.487  0.0685  0.6013  0.0262
16154SOL     OW49902   5.061   1.824   2.104  0.1269  0.2868  0.3017
16154SOL    HW149903   5.090   1.739   2.139  0.8026  0.6780  0.7142
16154SOL    HW249904   5.126   1.845   2.037 -0.3639  0.2149 -0.2015
16155SOL     OW49905   0.398   3.912  11.869  0.5520 -0.0917  0.1158
16155SOL    HW149906   0.377   3.986  11.926  1.0316 -0.7535  1.1814
16155SOL    HW249907   0.455   3.856  11.922  1.1555 -0.6505 -1.0760
16156SOL     OW49908   4.706   1.596   8.978  0.0344 -0.2659  0.1575
16156SOL    HW149909   4.636   1.644   9.023 -0.0699  0.4892 -0.7670
16156SOL    HW249910   4.660   1.530   8.925  0.1403 -0.9623  0.9117
16157SOL     OW49911   1.811   4.608   7.175  0.6302  0.5009  0.4501
16157SOL    HW149912   1.836   4.520   7.145  0.4581  0.4571  0.4300
16157SOL    HW249913   1.891   4.660   7.169  0.4055  0.7108 -0.8731
16158SOL     OW49914   4.498   7.245  10.499  0.3669 -0.3182  0.0356
16158SOL    HW149915   4.463   7.216  10.415  1.2601 -1.4718  0.0358
16158SOL    HW249916   4.564   7.310  10.476  0.6079 -0.6297 -0.1604
16159SOL     OW49917   0.829   0.999   8.698  0.4918 -0.3081  0.2921
16159SOL    HW149918   0.822   1.058   8.623 -0.2186  0.2299  0.7683
16159SOL    HW249919   0.881   0.926   8.666 -0.5605 -0.5306 -1.0004
16160SOL     OW49920   1.164   5.092  10.209 -0.6130  0.2946 -0.2539
16160SOL    HW149921   1.216   5.151  10.154 -1.0144  0.3863 -0.5406
16160SOL    HW249922   1.120   5.035  10.146 -0.8470  0.2101 -0.0105
16161SOL     OW49923   5.550   0.794   2.176  0.5363 -0.4409 -0.5566
16161SOL    HW149924   5.510   0.768   2.093 -0.1482 -0.7747 -0.1281
16161SOL    HW249925   5.482   0.779   2.242  0.6406  0.9588 -0.0855
16162SOL     OW49926   7.701   7.499   0.276 -0.4476  0.5973  0.5002
16162SOL    HW149927   7.656   7.575   0.239 -1.9843  0.6179  2.2921
16162SOL    HW249928   7.644   7.425   0.254 -1.5461  0.6416  2.9197
16163SOL     OW49929   1.833   7.573   9.755  0.2341 -0.2862  0.4935
16163SOL    HW149930   1.916   7.543   9.716 -0.1837 -0.3587 -0.3520
16163SOL    HW249931   1.786   7.492   9.776 -0.2611 -0.2365 -0.4170
16164SOL     OW49932   5.225   3.961   3.526 -0.5036  1.0755 -0.3873
16164SOL    HW149933   5.212   4.018   3.602 -0.7136  0.3846  0.1059
16164SOL    HW249934   5.197   3.874   3.556 -0.4797  0.7713 -1.2206
16165SOL     OW49935   6.550   2.255   8.888 -0.6086  0.1000  0.1983
16165SOL    HW149936   6.479   2.250   8.824  0.2375  0.0783 -0.7627
16165SOL    HW249937   6.549   2.169   8.932 -0.8921 -0.0556 -0.1096
16166SOL     OW49938   6.607   0.308   2.674 -0.0703 -0.7184  0.2860
16166SOL    HW149939   6.678   0.291   2.612 -0.1940  1.5140 -0.5346
16166SOL    HW249940   6.580   0.221   2.703  1.8667 -1.6995 -0.6528
16167SOL     OW49941   4.935   4.886   0.874  0.1438 -0.0995  0.0997
16167SOL    HW149942   4.880   4.856   0.946 -0.5017 -1.9373 -1.0883
16167SOL    HW249943   4.888   4.859   0.795  1.0651  1.4170 -1.0196
16168SOL     OW49944   7.458   0.331   5.877  0.2549 -0.0632  0.0552
16168SOL    HW149945   7.417   0.271   5.814  0.8272  0.5907 -0.9679
16168SOL    HW249946   7.493   0.402   5.823 -1.0026  1.5706  1.2736
16169SOL     OW49947   1.528   4.729   0.085  0.2733  0.3268  1.0431
16169SOL    HW149948   1.623   4.740   0.087  0.2211  1.3090 -0.2357
16169SOL    HW249949   1.510   4.691  -0.001 -0.4347 -0.6819  1.6114
16170SOL     OW49950   6.252   1.680   1.222  0.2148  0.2830 -0.6456
16170SOL    HW149951   6.325   1.700   1.280  0.7134  0.4946 -1.3357
16170SOL    HW249952   6.174   1.695   1.275  0.6656 -1.3384  0.5692
16171SOL     OW49953   5.392   0.835   0.075 -0.3482  0.4600  0.0081
16171SOL    HW149954   5.313   0.780   0.071  0.8808 -1.3275 -0.7786
16171SOL    HW249955   5.431   0.816   0.160 -0.9460  1.6658  0.5778
16172SOL     OW49956   6.750   2.867  10.148  0.0511  0.3786  0.0871
16172SOL    HW149957   6.742   2.958  10.117  0.0426 -0.0510 -1.2479
16172SOL    HW249958   6.680   2.858  10.212 -0.3901  1.1254 -0.2670
16173SOL     OW49959   7.729   5.671   7.011 -0.1338  0.2196 -0.1454
16173SOL    HW149960   7.786   5.744   7.031  1.2827 -0.7864 -0.3387
16173SOL    HW249961   7.641   5.708   7.009  0.5330  1.8635 -0.0843
16174SOL     OW49962   6.556   4.782   1.266  0.1089 -0.5673 -0.5271
16174SOL    HW149963   6.629   4.743   1.314 -0.5368 -2.8487 -1.2852
16174SOL    HW249964   6.508   4.708   1.230 -1.3833  0.9455 -1.8447
16175SOL     OW49965   7.407   7.498   8.031  0.1480 -0.3719 -0.1217
16175SOL    HW149966   7.393   7.466   8.121  0.6697 -0.0311  0.0854
16175SOL    HW249967   7.500   7.484   8.015 -0.0034 -0.7069 -0.7249
16176SOL     OW49968   4.975   0.181   4.573  0.1348 -0.1734 -0.1311
16176SOL    HW149969   5.011   0.215   4.655  0.4728 -0.8034 -0.0128
16176SOL    HW249970   5.000   0.246   4.507 -1.3453  1.0612  0.4655
16177SOL     OW49971   7.851   5.687   0.730  0.3189  0.6185 -0.7042
16177SOL    HW149972   7.810   5.639   0.657  0.9115 -1.5418  0.2876
16177SOL    HW249973   7.777   5.714   0.785  0.0218 -1.5769  0.0847
16178SOL     OW49974   4.359   2.549   8.486 -0.0366 -0.5055 -0.4719
16178SOL    HW149975   4.318   2.488   8.547  0.5777 -1.1763 -0.7230
16178SOL    HW249976   4.398   2.493   8.419  2.7231  0.0029  0.5987
16179SOL     OW49977   0.805   5.683   4.513 -0.6399 -0.4461 -0.3696
16179SOL    HW149978   0.828   5.608   4.569 -0.2374  0.2031  0.3439
16179SOL    HW249979   0.887   5.709   4.473 -0.5622  0.3135  0.2595
16180SOL     OW49980   4.299   5.359  11.435 -0.2706 -0.0774 -0.0831
16180SOL    HW149981   4.390   5.389  11.429  0.0844 -1.0996 -0.1665
16180SOL    HW249982   4.258   5.416  11.500  0.6950 -0.2016  0.6593
16181SOL     OW49983   3.790   1.532  11.790  0.6679 -0.0377 -0.0789
16181SOL    HW149984   3.736   1.581  11.852 -0.3559 -0.1865 -0.8295
16181SOL    HW249985   3.780   1.440  11.817  0.8688 -0.0381  0.0057
16182SOL     OW49986   1.893   6.519   8.724  0.6859  0.3663 -0.1163
16182SOL    HW149987   1.940   6.590   8.767  0.4110  0.2486  0.3781
16182SOL    HW249988   1.938   6.509   8.640  1.3770  0.4287  0.2390
16183SOL     OW49989   7.934   7.114   2.760 -0.0550  0.7619 -0.1620
16183SOL    HW149990   7.850   7.068   2.755 -0.5795  1.7192 -0.4527
16183SOL    HW249991   7.999   7.045   2.776 -0.8978  0.0133  0.0834
16184SOL     OW49992   3.296   2.044   4.958 -0.1026  0.4312  0.1948
16184SOL    HW149993   3.201   2.041   4.955 -0.0703 -1.5128 -0.1163
16184SOL    HW249994   3.322   1.963   5.003  1.4052  0.3869 -0.6586
16185SOL     OW49995   4.349   0.794   0.019 -0.2208  0.4546 -0.1003
16185SOL    HW149996   4.308   0.709   0.031 -0.0932  0.6119  1.7815
16185SOL    HW249997   4.442   0.774   0.008 -0.3610  0.2851 -1.0133
16186SOL     OW49998   0.559   6.444   7.958  0.6271  0.8818  0.4892
16186SOL    HW149999   0.601   6.390   7.891 -0.6326 -0.0256  0.3859
16186SOL    HW250000   0.631   6.475   8.013  1.5369  0.4482 -0.4248
16187SOL     OW50001   4.637   2.482   6.379 -0.1793  0.4673 -0.5392
16187SOL    HW150002   4.546   2.513   6.382 -0.2225  0.4831 -1.7206
16187SOL    HW250003   4.661   2.487   6.287  0.5242 -0.9948 -0.4622
16188SOL     OW50004   7.721   0.966   1.560  0.4248 -0.3695 -0.6487
16188SOL    HW150005   7.686   0.972   1.649  1.8675  0.8986 -0.1221
16188SOL    HW250006   7.792   0.903   1.567  1.3744  0.6844 -0.5913
16189SOL     OW50007   4.605   3.119   1.713 -0.4901 -0.4785  0.1540
16189SOL    HW150008   4.510   3.110   1.725 -0.3041 -1.2555  1.1903
16189SOL    HW250009   4.642   3.094   1.798  0.6536 -0.3852 -0.3060
16190SOL     OW50010   5.856   2.546   5.794  0.3771 -0.1553  0.4464
16190SOL    HW150011   5.793   2.615   5.818 -1.0316 -0.2986 -2.4962
16190SOL    HW250012   5.823   2.468   5.838 -2.1818 -0.4427 -1.7406
16191SOL     OW50013   2.834   6.445   8.234  0.3296 -0.2073  0.6575
16191SOL    HW150014   2.798   6.533   8.242  0.9769  0.1554 -0.2204
16191SOL    HW250015   2.927   6.455   8.257  0.1737 -0.8864  1.6694
16192SOL     OW50016   5.197   2.626   1.024 -0.1791  0.7211 -0.1557
16192SOL    HW150017   5.136   2.603   0.953  0.3659 -1.3288 -0.0215
16192SOL    HW250018   5.255   2.691   0.985 -2.2166  2.5487 -0.3700
16193SOL     OW50019   1.500   3.050   5.750 -0.2772  0.7645  0.0320
16193SOL    HW150020   1.570   2.985   5.741 -0.9179  0.1522 -0.7890
16193SOL    HW250021   1.535   3.116   5.809 -0.0494 -0.9659  1.9283
16194SOL     OW50022   5.865   4.778   6.566  0.0245  0.0735  0.0114
16194SOL    HW150023   5.845   4.839   6.495  0.1770 -1.9241 -1.8262
16194SOL    HW250024   5.788   4.782   6.623 -1.8090 -0.9589 -2.2342
16195SOL     OW50025   4.286   4.569   3.424 -0.2317 -0.4100  0.2896
16195SOL    HW150026   4.233   4.601   3.496 -1.0190  1.9838 -1.2196
16195SOL    HW250027   4.373   4.605   3.441  0.1988 -1.7693  1.1626
16196SOL     OW50028   3.271   0.762   4.384  0.0773  0.2984  0.1794
16196SOL    HW150029   3.235   0.749   4.472 -2.2031 -1.6655 -0.9144
16196SOL    HW250030   3.219   0.834   4.347 -0.0480  0.0808 -0.0729
16197SOL     OW50031   3.696   2.690   7.586 -0.6529 -0.1676 -0.1567
16197SOL    HW150032   3.610   2.733   7.586 -0.9686 -0.6443 -2.4405
16197SOL    HW250033   3.681   2.606   7.629 -1.5822 -0.6224 -1.3068
16198SOL     OW50034   2.921   1.797   9.543 -0.0960  0.5908  0.4274
16198SOL    HW150035   2.879   1.724   9.497  0.7698  0.4801 -0.2166
16198SOL    HW250036   2.852   1.833   9.599 -0.8483 -0.0074 -0.0920
16199SOL     OW50037   7.276   4.961   5.940  0.3533 -0.2813 -0.0605
16199SOL    HW150038   7.277   4.885   5.999  0.9712 -0.4801 -0.3194
16199SOL    HW250039   7.366   4.967   5.908  0.3291  0.6185  0.0273
16200SOL     OW50040   2.197   6.551   6.899  0.1929  0.3624  0.2179
16200SOL    HW150041   2.264   6.505   6.849  0.2807 -0.3564  0.9720
16200SOL    HW250042   2.234   6.558   6.987 -0.5547  0.3130  0.5466
16201SOL     OW50043   7.297   0.279  10.076  0.1433 -0.4098  0.8163
16201SOL    HW150044   7.331   0.190  10.074 -1.0470 -0.8797  0.5111
16201SOL    HW250045   7.374   0.335  10.067  0.9642 -1.3861  1.5539
16202SOL     OW50046   4.225   5.994  10.320 -0.0027  0.2646  0.1578
16202SOL    HW150047   4.200   5.973  10.230  1.6748  0.1588 -0.3076
16202SOL    HW250048   4.231   6.090  10.321 -1.0641  0.3380  0.4616
16203SOL     OW50049   6.511   3.410  10.136  0.0449  0.6139 -0.2232
16203SOL    HW150050   6.513   3.338  10.074 -0.1627  0.0387  0.4277
16203SOL    HW250051   6.603   3.420  10.164  0.2218  1.1997 -0.9749
16204SOL     OW50052   6.471   5.447   4.960 -0.1053  0.2193  0.4219
16204SOL    HW150053   6.425   5.410   5.035  0.4517  0.5880  0.9567
16204SOL    HW250054   6.425   5.529   4.941 -0.1492  0.2035  0.4604
16205SOL     OW50055   7.919   6.781  11.373  0.2427 -0.3298 -0.4763
16205SOL    HW150056   7.996   6.734  11.340 -0.1670 -1.4195  0.0792
16205SOL    HW250057   7.880   6.821  11.296  1.8849  1.0550 -0.6580
16206SOL     OW50058   0.424   0.020   2.551 -0.0195 -0.1695 -0.6969
16206SOL    HW150059   0.390  -0.055   2.600 -0.4025  1.1098  1.0853
16206SOL    HW250060   0.518   0.003   2.542  0.2860  0.0616  1.5226
16207SOL     OW50061   1.224   4.393   6.241  0.0430  0.3592  0.5414
16207SOL    HW150062   1.229   4.445   6.161 -1.4742  0.0997  0.2440
16207SOL    HW250063   1.212   4.303   6.211  0.3606  0.1337  1.0638
16208SOL     OW50064   4.790   5.360  11.063  0.1100 -0.3383 -0.5061
16208SOL    HW150065   4.811   5.336  10.972 -0.5042  0.8196 -0.9757
16208SOL    HW250066   4.694   5.360  11.066  0.1177  0.3871 -0.0780
16209SOL     OW50067   5.019   2.118   5.110  0.2372 -0.3026 -0.0763
16209SOL    HW150068   5.113   2.137   5.110  0.1068  0.3789  0.2641
16209SOL    HW250069   5.014   2.022   5.109  0.9293 -0.3435 -0.7091
16210SOL     OW50070   1.768   7.789   7.892 -0.5829 -0.0164 -0.1061
16210SOL    HW150071   1.778   7.800   7.797 -1.0976  0.6688 -0.0870
16210SOL    HW250072   1.783   7.876   7.928  1.2066 -0.5649  0.5973
16211SOL     OW50073   3.410   7.722   8.360 -0.1720  0.3445  0.1881
16211SOL    HW150074   3.421   7.817   8.357 -0.9077  0.4803  1.3762
16211SOL    HW250075   3.478   7.691   8.420 -0.1178  0.1546  0.0299
16212SOL     OW50076   2.790   7.020   6.568  0.2561 -0.1809 -0.1138
16212SOL    HW150077   2.713   6.994   6.518 -0.9784 -0.9125  2.0638
16212SOL    HW250078   2.862   7.017   6.505 -1.0559 -1.9804 -1.6165
16213SOL     OW50079   7.231   6.036   8.321 -0.8185 -0.0204 -0.0560
16213SOL    HW150080   7.264   6.108   8.375 -0.7097 -0.0144 -0.1298
16213SOL    HW250081   7.238   5.959   8.377  0.4999 -0.2358 -0.4981
16214SOL     OW50082   2.623   2.014   7.421  0.9345 -0.1642 -0.3165
16214SOL    HW150083   2.649   1.929   7.387 -0.8265  0.3210 -3.1990
16214SOL    HW250084   2.530   2.004   7.443  1.4026  0.2692  2.2121
16215SOL     OW50085   6.508   0.862   6.451  0.0391  0.0698 -0.5025
16215SOL    HW150086   6.564   0.821   6.385  0.2800  0.3102 -0.4503
16215SOL    HW250087   6.556   0.853   6.533 -0.7934 -1.2925 -0.1311
16216SOL     OW50088   2.847   4.068   2.063 -0.0592  0.3380  0.3048
16216SOL    HW150089   2.761   4.081   2.102  0.1757 -0.1540  1.0080
16216SOL    HW250090   2.907   4.065   2.138  0.3017 -1.4547 -0.0179
16217SOL     OW50091   0.584   4.892   3.483  0.5302 -0.1825 -0.2705
16217SOL    HW150092   0.592   4.852   3.396  1.1823 -1.0495  0.1693
16217SOL    HW250093   0.644   4.966   3.482  0.1018  0.1685 -0.7411
16218SOL     OW50094   2.631   5.971  10.797  0.5634  0.2804  0.0391
16218SOL    HW150095   2.575   5.915  10.852  1.1816  0.4935  0.9013
16218SOL    HW250096   2.667   6.035  10.858  2.1813 -0.1848 -0.3893
16219SOL     OW50097   0.917   4.335   1.413 -0.3071  0.3826  0.2599
16219SOL    HW150098   0.986   4.369   1.355 -1.5627 -0.0689 -1.5897
16219SOL    HW250099   0.907   4.402   1.480  0.4272  1.4880 -0.6922
16220SOL     OW50100   5.745   2.875   4.771 -0.1850 -0.1306 -0.2893
16220SOL    HW150101   5.690   2.889   4.849  1.5672 -0.6309  1.1059
16220SOL    HW250102   5.759   2.962   4.735  1.3181  0.4898  1.6594
16221SOL     OW50103   0.313   6.084   1.403  0.0212  0.1227 -0.5400
16221SOL    HW150104   0.279   6.169   1.375 -0.4983  0.3671  0.7662
16221SOL    HW250105   0.242   6.022   1.387 -0.2602  0.2551  0.1649
16222SOL     OW50106   6.270   7.561   3.486 -0.1714  0.0553 -0.0331
16222SOL    HW150107   6.285   7.470   3.459  3.6902  0.7946 -0.9937
16222SOL    HW250108   6.272   7.611   3.404  3.0056  1.4492  0.7482
16223SOL     OW50109   7.169   3.593  10.706 -0.7788  0.0793  0.2095
16223SOL    HW150110   7.156   3.674  10.757 -0.0534 -0.5706  1.4611
16223SOL    HW250111   7.189   3.527  10.771  0.4440 -0.7419 -0.9558
16224SOL     OW50112   2.842   0.286   5.236 -0.2112  0.0092  0.5654
16224SOL    HW150113   2.770   0.276   5.299 -1.5868  0.9611 -0.7653
16224SOL    HW250114   2.808   0.249   5.155  0.4636  1.2280 -0.3156
16225SOL     OW50115   4.337   1.354  11.341 -0.1112  0.5023  0.2033
16225SOL    HW150116   4.248   1.340  11.307  0.3295 -0.0670 -0.7488
16225SOL    HW250117   4.349   1.449  11.335 -0.6800  0.5917  0.4036
16226SOL     OW50118   3.969   5.230  12.389  0.0975  0.0301 -0.0608
16226SOL    HW150119   4.022   5.303  12.421  0.5416 -1.2104  2.2114
16226SOL    HW250120   4.032   5.164  12.362 -0.2919 -0.3351 -0.0875
16227SOL     OW50121   1.143   7.218   3.501  0.1712 -0.0403  0.1706
16227SOL    HW150122   1.219   7.161   3.488 -0.0979 -0.0302 -1.6577
16227SOL    HW250123   1.178   7.295   3.546  0.5090 -1.6372  2.8640
16228SOL     OW50124   4.697   5.972   7.688  0.2708 -0.1845 -0.3284
16228SOL    HW150125   4.737   6.058   7.673  1.6765 -0.6665  0.5117
16228SOL    HW250126   4.604   5.992   7.704  0.8463  1.3672  1.4842
16229SOL     OW50127   6.181   1.824  10.631 -0.0665 -0.4020 -0.6055
16229SOL    HW150128   6.110   1.779  10.677  1.0111  0.2994  1.9199
16229SOL    HW250129   6.236   1.860  10.701  0.8809  2.0821 -2.4643
16230SOL     OW50130   6.477   0.264  12.007  0.2881  0.1820 -0.3592
16230SOL    HW150131   6.546   0.317  11.966 -0.2896  0.5571 -0.8670
16230SOL    HW250132   6.513   0.240  12.092  1.6064 -0.7661 -1.1366
16231SOL     OW50133   2.069   1.161   7.190  0.1187 -0.2298 -0.2818
16231SOL    HW150134   2.077   1.161   7.095  1.3491  0.0732 -0.1850
16231SOL    HW250135   2.159   1.155   7.223 -0.1619  1.2708  0.8703
16232SOL     OW50136   2.906   7.724   0.904  0.5392 -0.1232  0.7392
16232SOL    HW150137   2.882   7.649   0.850 -0.8268 -0.1206  1.3051
16232SOL    HW250138   3.001   7.732   0.894  0.6875 -1.8528  0.5968
16233SOL     OW50139   1.304   2.709  11.025  0.4033  0.2134  0.0935
16233SOL    HW150140   1.336   2.619  11.023 -0.2386 -0.0227  0.1820
16233SOL    HW250141   1.366   2.755  11.082  0.4276 -0.2946  0.4873
16234SOL     OW50142   1.771   2.224   6.381 -0.0189  0.6564 -0.3127
16234SOL    HW150143   1.784   2.267   6.466 -1.5622  1.5277 -0.4752
16234SOL    HW250144   1.846   2.252   6.328  1.1511 -0.1899  0.8613
16235SOL     OW50145   6.877   2.885   0.032 -0.4995 -0.0351  0.7178
16235SOL    HW150146   6.903   2.887   0.125  1.2664 -1.5779  0.3154
16235SOL    HW250147   6.906   2.800   0.001 -4.1627 -1.0017 -0.4677
16236SOL     OW50148   3.515   6.876   9.231  0.0003  0.3000 -0.1909
16236SOL    HW150149   3.438   6.836   9.189 -0.7804  2.6171 -1.1047
16236SOL    HW250150   3.573   6.896   9.158  0.6440  0.2890  0.3161
16237SOL     OW50151   7.205   2.165  10.660 -0.7945 -0.2408 -0.4761
16237SOL    HW150152   7.286   2.195  10.702 -1.0676  0.2390 -0.2774
16237SOL    HW250153   7.143   2.153  10.733  0.1262 -4.2648 -0.1244
16238SOL     OW50154   7.284   2.962   0.162 -0.5058 -0.2027 -0.1853
16238SOL    HW150155   7.238   2.879   0.156 -1.2115  0.2134 -0.6886
16238SOL    HW250156   7.231   3.016   0.220  0.8261 -0.6424  1.5322
16239SOL     OW50157   6.834   6.291   7.403 -0.5274  0.0483 -0.3381
16239SOL    HW150158   6.856   6.350   7.475 -1.3493  0.0580 -0.0892
16239SOL    HW250159   6.870   6.334   7.326  1.0226 -0.3257  0.1362
16240SOL     OW50160   5.974   4.209   6.537 -0.2465 -0.0646  0.2808
16240SOL    HW150161   5.952   4.300   6.517 -0.8040  0.1299  1.6628
16240SOL    HW250162   6.061   4.214   6.576 -0.4207 -0.0838  0.6712
16241SOL     OW50163   4.677   3.436  10.621 -1.1156  0.4561  0.4900
16241SOL    HW150164   4.692   3.525  10.589  2.5156  0.1876  0.9616
16241SOL    HW250165   4.636   3.391  10.547 -1.9779  2.2066 -0.1554
16242SOL     OW50166   0.650   1.159  12.248  0.0786 -0.2917  0.6257
16242SOL    HW150167   0.738   1.124  12.261  0.6234  0.9256  0.3887
16242SOL    HW250168   0.604   1.091  12.200  1.3875 -0.3077 -0.6697
16243SOL     OW50169   3.249   7.571   1.569  0.3280  0.0155 -0.1444
16243SOL    HW150170   3.217   7.495   1.618 -2.1081  1.3051  0.4546
16243SOL    HW250171   3.205   7.565   1.485  0.5564  0.4561 -0.2956
16244SOL     OW50172   6.859   7.509   8.487  0.2051  0.2450 -0.1941
16244SOL    HW150173   6.790   7.494   8.552 -1.3294  0.6182 -1.6549
16244SOL    HW250174   6.888   7.421   8.462 -0.5813  0.0253 -0.3826
16245SOL     OW50175   6.962   7.337   1.814 -0.0324  0.0670  0.1843
16245SOL    HW150176   6.934   7.262   1.762 -2.7777 -0.8072  2.6318
16245SOL    HW250177   6.889   7.399   1.808  1.0239  1.3886  0.3863
16246SOL     OW50178   2.662   2.335   6.438  0.2278 -0.0847  0.2737
16246SOL    HW150179   2.738   2.284   6.411  0.1997  0.2152 -0.4072
16246SOL    HW250180   2.660   2.409   6.377  1.3749  1.8162  2.4109
16247SOL     OW50181   7.470   1.833  11.068 -0.5126 -0.8510  0.6053
16247SOL    HW150182   7.507   1.756  11.112 -0.0857 -1.7305 -1.2152
16247SOL    HW250183   7.378   1.810  11.053 -0.6097 -0.6315  0.8576
16248SOL     OW50184   2.981   2.962   4.385  0.9620  0.1833  0.3118
16248SOL    HW150185   3.001   2.877   4.345 -0.0922 -0.4780  1.1234
16248SOL    HW250186   2.933   2.940   4.465 -1.2142  1.5621 -0.5042
16249SOL     OW50187   2.724   1.975   6.849 -0.3531 -0.1391 -0.0928
16249SOL    HW150188   2.793   1.958   6.913 -1.0281 -1.3532  0.3535
16249SOL    HW250189   2.674   2.047   6.886 -0.2100 -0.2430  0.3014
16250SOL     OW50190   6.060   2.953   4.561  0.6794  0.0877 -0.0570
16250SOL    HW150191   6.054   3.043   4.527  2.5625 -0.2437 -1.4562
16250SOL    HW250192   6.106   2.963   4.644  0.2006  0.4865  0.1644
16251SOL     OW50193   4.334   5.443   3.306  0.0770 -0.3528 -0.3494
16251SOL    HW150194   4.345   5.529   3.345 -2.0976  0.0894 -0.5548
16251SOL    HW250195   4.343   5.382   3.380 -1.1588  0.2808  0.3746
16252SOL     OW50196   5.804   2.945   6.990  0.4238  0.2403 -0.2899
16252SOL    HW150197   5.803   2.852   7.012 -1.5130  0.2523 -0.1217
16252SOL    HW250198   5.715   2.975   7.012  1.1184  2.2064 -0.0140
16253SOL     OW50199   3.433   6.552   9.554 -0.3007  0.1733 -0.0909
16253SOL    HW150200   3.386   6.625   9.594  0.2050 -0.0847  1.0034
16253SOL    HW250201   3.399   6.474   9.597  0.1176 -0.1234 -0.2867
16254SOL     OW50202   2.775   2.280  12.306  0.1767 -0.5816  0.0304
16254SOL    HW150203   2.783   2.375  12.318  2.5303 -0.6862 -0.2812
16254SOL    HW250204   2.761   2.270  12.212  0.7604 -0.5546 -0.0657
16255SOL     OW50205   3.980   2.289   0.094  0.1662 -0.1301  0.3490
16255SOL    HW150206   4.006   2.224   0.029 -0.7114 -0.5500  0.4060
16255SOL    HW250207   4.058   2.300   0.149  0.5778 -0.5405 -0.1432
16256SOL     OW50208   5.274   1.433   9.385 -0.4779  0.4518  1.0575
16256SOL    HW150209   5.353   1.461   9.432  0.2383  0.8648 -0.3316
16256SOL    HW250210   5.294   1.343   9.357 -0.6360  0.4290  1.0210
16257SOL     OW50211   3.684   6.125   8.943 -0.4847 -0.4987  0.0730
16257SOL    HW150212   3.720   6.085   9.022  0.6477  0.2653 -0.0187
16257SOL    HW250213   3.713   6.068   8.872 -2.6408 -1.9463  0.2602
16258SOL     OW50214   6.443   7.744  11.197 -0.0130 -0.3103  0.0833
16258SOL    HW150215   6.530   7.728  11.234 -0.3185 -2.2496  0.0789
16258SOL    HW250216   6.383   7.701  11.258 -1.0653  1.6446  0.4895
16259SOL     OW50217   7.415   5.670   1.373  0.0206  0.1999  0.2062
16259SOL    HW150218   7.326   5.704   1.373  0.0586  0.3266  1.1213
16259SOL    HW250219   7.413   5.597   1.436  0.4538 -0.0853 -0.1053
16260SOL     OW50220   3.445   1.694   5.821 -0.1099 -0.3754  0.3471
16260SOL    HW150221   3.440   1.775   5.873 -0.9015 -0.1890 -0.0013
16260SOL    HW250222   3.365   1.646   5.844 -0.6353 -0.1427 -0.9144
16261SOL     OW50223   6.250   6.567   4.941 -0.0038 -0.4038  0.2270
16261SOL    HW150224   6.221   6.510   4.871 -1.1594  1.5934 -1.0134
16261SOL    HW250225   6.191   6.547   5.014 -0.5427 -0.6516 -0.2664
16262SOL     OW50226   5.210   6.899   8.297 -0.1469 -0.2803 -0.3423
16262SOL    HW150227   5.222   6.960   8.225  0.2500 -0.6315 -0.5800
16262SOL    HW250228   5.294   6.853   8.304  0.6409  1.3460  1.8571
16263SOL     OW50229   2.896   5.655   3.060  0.0983 -0.4455 -0.1439
16263SOL    HW150230   2.886   5.714   2.986  0.3214  1.0234  0.9651
16263SOL    HW250231   2.856   5.701   3.134 -0.5129 -2.0590  0.5764
16264SOL     OW50232   6.444   3.390  10.557 -0.6177 -0.6364  0.0183
16264SOL    HW150233   6.400   3.306  10.544 -1.0261 -0.6006  1.0323
16264SOL    HW250234   6.415   3.418  10.644 -0.4828  0.5571 -0.3079
16265SOL     OW50235   2.853   2.439   3.549  0.2801 -0.1339  0.4049
16265SOL    HW150236   2.834   2.410   3.460 -0.2639 -0.9222  0.7618
16265SOL    HW250237   2.882   2.530   3.540  1.4524 -0.5949 -0.7035
16266SOL     OW50238   2.666   4.372   6.533  0.0680 -0.4970 -1.1035
16266SOL    HW150239   2.649   4.418   6.451  0.4871 -0.2479 -1.0548
16266SOL    HW250240   2.762   4.370   6.540  0.0809  1.7724  0.6277
16267SOL     OW50241   0.346   3.372   8.022 -0.2152 -0.1156 -0.4582
16267SOL    HW150242   0.401   3.329   8.088 -1.9111 -0.2364  0.9504
16267SOL    HW250243   0.269   3.401   8.070 -2.0125 -1.1046 -2.5579
16268SOL     OW50244   2.866   6.290   8.998 -0.0037 -0.4172 -0.2347
16268SOL    HW150245   2.775   6.258   8.991  0.6592 -2.4397 -0.3290
16268SOL    HW250246   2.908   6.229   9.059  1.0105  1.2555  0.8241
16269SOL     OW50247   2.071   1.541   4.878  0.5224 -0.8010  0.0007
16269SOL    HW150248   2.131   1.615   4.880 -1.5275  0.9908 -0.4978
16269SOL    HW250249   2.077   1.508   4.788 -2.7599  2.6972 -1.8388
16270SOL     OW50250   7.119   5.670   8.003 -0.4075 -0.4168  0.0623
16270SOL    HW150251   7.035   5.665   7.957 -0.7442  0.3567  0.5664
16270SOL    HW250252   7.099   5.640   8.092 -0.0956 -0.4724  0.1140
16271SOL     OW50253   2.885   3.928   8.938 -0.5850 -0.1479 -0.1783
16271SOL    HW150254   2.906   3.973   8.856  0.4341 -0.9412 -0.3801
16271SOL    HW250255   2.920   3.839   8.926  0.5239  0.0233  1.5212
16272SOL     OW50256   5.250   1.642   1.004 -0.8530 -0.3343 -0.1385
16272SOL    HW150257   5.276   1.700   0.933 -1.0059 -1.0586 -0.7966
16272SOL    HW250258   5.172   1.684   1.041 -0.6134  0.1896 -0.2150
16273SOL     OW50259   1.564   1.304   3.303 -0.3992  0.0577 -0.3168
16273SOL    HW150260   1.532   1.378   3.355  0.6022 -0.1622  0.6587
16273SOL    HW250261   1.485   1.260   3.273 -1.0327  0.1060  1.1570
16274SOL     OW50262   5.990   4.604  12.425 -0.2940 -0.8148  0.0943
16274SOL    HW150263   5.990   4.699  12.415 -2.4795 -0.7227  0.5514
16274SOL    HW250264   6.076   4.577  12.392  0.4051  1.3033  0.0149
16275SOL     OW50265   5.392   4.677   2.660  0.2469 -0.1549 -0.1691
16275SOL    HW150266   5.369   4.584   2.668  1.0233 -0.3334  0.0688
16275SOL    HW250267   5.398   4.692   2.565 -1.0971 -0.0326 -0.2444
16276SOL     OW50268   1.418   5.620   4.827  0.1807  0.2830  0.2391
16276SOL    HW150269   1.351   5.577   4.880 -1.7419  1.9602 -0.7057
16276SOL    HW250270   1.380   5.625   4.739  0.3837  3.5588  0.2318
16277SOL     OW50271   1.507   7.796   4.241  0.1461 -0.2543  0.3139
16277SOL    HW150272   1.508   7.720   4.184 -1.5314  0.5357 -0.8803
16277SOL    HW250273   1.458   7.768   4.318  0.2481 -0.6194  0.2464
16278SOL     OW50274   0.734   6.378  11.971  0.0344 -0.2305 -0.4226
16278SOL    HW150275   0.797   6.316  11.936  2.0871 -0.0683  2.5578
16278SOL    HW250276   0.663   6.323  12.005  0.5837 -0.7675 -0.1210
16279SOL     OW50277   5.744   4.064   2.823  0.1296 -0.8035  0.0509
16279SOL    HW150278   5.673   4.120   2.791  1.1590  1.8632  2.0586
16279SOL    HW250279   5.712   4.030   2.906  0.6554 -0.7374  0.2839
16280SOL     OW50280   3.965   2.658   5.225 -0.0679  0.6086  0.1698
16280SOL    HW150281   3.878   2.664   5.185 -0.6152  2.1345  1.4624
16280SOL    HW250282   4.011   2.737   5.194  0.6373  0.1443  0.0077
16281SOL     OW50283   3.258   5.525   8.742  0.3795 -0.3657  0.1352
16281SOL    HW150284   3.200   5.569   8.679 -1.8346 -0.1920  2.1660
16281SOL    HW250285   3.279   5.442   8.700 -0.4419  0.0358 -1.1565
16282SOL     OW50286   0.635   4.017  10.672 -0.4246 -0.2736 -0.1937
16282SOL    HW150287   0.612   4.100  10.715  0.3487 -0.2449  0.1874
16282SOL    HW250288   0.593   3.950  10.725 -0.8614 -0.1427 -0.3693
16283SOL     OW50289   2.554   0.622   4.457 -0.4006 -0.4857 -0.0810
16283SOL    HW150290   2.640   0.598   4.492 -0.9956 -0.8323  1.2089
16283SOL    HW250291   2.570   0.701   4.407  0.6237 -0.3716  0.3970
16284SOL     OW50292   1.253   1.669   5.870  0.1475 -0.1624 -0.2348
16284SOL    HW150293   1.296   1.586   5.891  1.3475  0.8373  1.4555
16284SOL    HW250294   1.180   1.675   5.931  0.8371  0.6019  0.5324
16285SOL     OW50295   5.863   2.265   8.724 -0.3696  0.5648  0.0742
16285SOL    HW150296   5.849   2.347   8.675 -1.3848  0.6372  0.4611
16285SOL    HW250297   5.783   2.254   8.775  0.4684  0.2370  1.3637
16286SOL     OW50298   7.821   2.349  11.893  0.1576  0.0003  0.6015
16286SOL    HW150299   7.804   2.441  11.913 -1.6011 -0.1024 -0.2718
16286SOL    HW250300   7.799   2.339  11.801  1.5582 -1.0356  0.3376
16287SOL     OW50301   1.488   7.455  10.450  0.1287 -0.6576  0.0854
16287SOL    HW150302   1.480   7.533  10.506  1.3472  0.5157 -1.2934
16287SOL    HW250303   1.417   7.464  10.387  0.5364 -0.4208 -0.3448
16288SOL     OW50304   2.490   5.928   1.227  0.0637 -0.2475 -0.0860
16288SOL    HW150305   2.519   5.838   1.240  0.4875 -0.0915  0.0514
16288SOL    HW250306   2.422   5.941   1.294  0.9540 -0.0354  0.7960
16289SOL     OW50307   4.758   4.269   1.620 -0.3744  0.2438  0.3171
16289SOL    HW150308   4.841   4.243   1.579 -0.0354  0.2568  0.9690
16289SOL    HW250309   4.711   4.186   1.632 -0.8013  0.3144 -0.7529
16290SOL     OW50310   6.191   3.028   5.210 -0.2532 -0.0556 -0.3131
16290SOL    HW150311   6.151   2.943   5.190  1.3024 -0.8661 -0.1569
16290SOL    HW250312   6.130   3.069   5.271  0.7161 -2.7374  2.7479
16291SOL     OW50313   5.703   6.610  10.450 -0.0423  0.5023 -0.1692
16291SOL    HW150314   5.757   6.666  10.505  0.6008  2.0218 -2.2290
16291SOL    HW250315   5.764   6.549  10.409  0.0823  1.7566 -1.9487
16292SOL     OW50316   2.907   5.240   8.096 -0.0358  0.3893 -0.1372
16292SOL    HW150317   2.924   5.170   8.159  1.3217 -0.3093 -1.2163
16292SOL    HW250318   2.869   5.196   8.020 -2.4583  1.3345  0.4460
16293SOL     OW50319   5.743   7.710   8.939 -0.0512 -0.1270 -0.1178
16293SOL    HW150320   5.830   7.739   8.910 -0.0779  2.3772  1.9855
16293SOL    HW250321   5.695   7.695   8.857  1.6550  0.6305 -1.3325
16294SOL     OW50322   7.490   1.194   1.238 -0.0003 -0.3683  0.1018
16294SOL    HW150323   7.453   1.132   1.300 -0.4402  0.5286  0.7643
16294SOL    HW250324   7.585   1.183   1.247 -0.0511 -0.1926  1.0191
16295SOL     OW50325   2.573   1.243   8.538  0.0726  0.3075 -0.1394
16295SOL    HW150326   2.628   1.173   8.502  0.7869  1.4916 -1.4351
16295SOL    HW250327   2.628   1.321   8.534 -1.1983  1.2301 -0.0740
16296SOL     OW50328   4.280   5.470   9.811  0.4931 -0.3356  0.2363
16296SOL    HW150329   4.195   5.513   9.814  0.7555  0.2682 -0.8092
16296SOL    HW250330   4.269   5.393   9.867 -1.1688 -1.0371 -0.9711
16297SOL     OW50331   6.168   4.894   8.074  0.1441 -0.3566 -0.2252
16297SOL    HW150332   6.151   4.968   8.016  1.9132 -0.2686 -0.6890
16297SOL    HW250333   6.085   4.880   8.120  0.1056  2.7363  0.8799
16298SOL     OW50334   7.146   1.710   5.882  0.1823 -0.2636  0.6537
16298SOL    HW150335   7.144   1.797   5.922 -0.3895  0.7548 -1.4058
16298SOL    HW250336   7.145   1.649   5.955  0.6176  1.4637  2.1701
16299SOL     OW50337   5.604   7.059   1.380  0.2075 -0.3278 -0.3647
16299SOL    HW150338   5.574   7.147   1.360  2.6909  0.7606  0.2370
16299SOL    HW250339   5.624   7.062   1.474  2.1506 -0.8672 -0.7131
16300SOL     OW50340   7.042   4.819   6.104 -0.2395 -0.2077 -0.2895
16300SOL    HW150341   6.989   4.750   6.143 -1.5807  0.8465 -0.1625
16300SOL    HW250342   7.034   4.806   6.009  0.6319 -1.0225 -0.2622
16301SOL     OW50343   6.850   7.212   2.092 -0.6125  0.1949 -0.0828
16301SOL    HW150344   6.809   7.288   2.049 -1.3169  0.4831  1.0519
16301SOL    HW250345   6.791   7.192   2.165 -0.4751 -1.5040 -0.4085
16302SOL     OW50346   6.184   3.568   3.034  0.0292  0.3171  0.2286
16302SOL    HW150347   6.227   3.542   3.115  1.7059 -2.0718 -1.2742
16302SOL    HW250348   6.252   3.615   2.985  0.1419 -1.1275 -1.0743
16303SOL     OW50349   4.587   1.677   5.572  0.2465  0.0209  0.3691
16303SOL    HW150350   4.628   1.763   5.578 -0.0372  0.1262  0.9496
16303SOL    HW250351   4.511   1.683   5.630  0.0537 -0.5239  0.1788
16304SOL     OW50352   6.582   1.785   2.984  0.0987 -0.1362  0.3950
16304SOL    HW150353   6.594   1.825   2.898  0.3588  0.7168  0.8216
16304SOL    HW250354   6.659   1.729   2.995  0.9010  1.0014  0.7466
16305SOL     OW50355   7.052   3.044  10.432  0.1505  0.1085  0.1221
16305SOL    HW150356   7.118   2.994  10.480 -0.5259 -0.7685  0.1548
16305SOL    HW250357   6.996   2.978  10.392 -0.4265  0.8411 -0.3059
16306SOL     OW50358   6.127   3.505   7.492  0.3026  0.0225  0.9787
16306SOL    HW150359   6.148   3.597   7.507  1.9089 -0.1622  0.1200
16306SOL    HW250360   6.088   3.504   7.404 -1.2564  0.0574  1.6350
16307SOL     OW50361   3.056   6.213  11.557  0.0752  0.2088 -0.9475
16307SOL    HW150362   2.997   6.146  11.524 -0.4384  0.3794 -0.3945
16307SOL    HW250363   2.998   6.282  11.590  0.5889  0.7201 -1.0804
16308SOL     OW50364   2.490   2.986   0.941  0.0819  0.2215 -0.6138
16308SOL    HW150365   2.397   3.003   0.931  0.0149 -0.7890 -2.0825
16308SOL    HW250366   2.527   3.070   0.969 -1.3236  0.4755  0.5762
16309SOL     OW50367   7.339   0.250   1.447  0.1787 -0.8711  0.0713
16309SOL    HW150368   7.407   0.241   1.513 -0.0937  0.2684  0.5460
16309SOL    HW250369   7.332   0.345   1.433 -1.5819 -0.9178  0.3446
16310SOL     OW50370   6.819   2.817   4.751  0.3221  0.0261  0.2053
16310SOL    HW150371   6.910   2.845   4.762  0.0417  2.2379 -2.2486
16310SOL    HW250372   6.790   2.858   4.670 -2.6667 -1.2274  0.4930
16311SOL     OW50373   1.550   6.159   0.408  0.3960 -0.0292 -0.7070
16311SOL    HW150374   1.600   6.085   0.374 -1.5111 -1.0487 -1.4271
16311SOL    HW250375   1.535   6.138   0.500  0.6324 -0.0863 -0.6809
16312SOL     OW50376   4.743   3.748   0.042  0.7074 -0.7071  0.0003
16312SOL    HW150377   4.743   3.701   0.125 -0.4311 -0.9527 -0.1206
16312SOL    HW250378   4.733   3.840   0.067 -0.5483 -0.8624  0.1135
16313SOL     OW50379   3.114   4.385   2.836 -0.1639 -0.0153 -0.1421
16313SOL    HW150380   3.038   4.437   2.864  1.5003  1.5384  1.7848
16313SOL    HW250381   3.176   4.392   2.908  1.9367 -1.0139 -1.7454
16314SOL     OW50382   3.217   3.401   2.716 -0.4316 -0.0100  0.2357
16314SOL    HW150383   3.273   3.472   2.688  0.9573 -0.4373  1.7386
16314SOL    HW250384   3.144   3.401   2.655 -0.5424  2.7652  0.2724
16315SOL     OW50385   1.202   0.159   0.225  0.2004  0.0071 -0.0248
16315SOL    HW150386   1.146   0.131   0.297  0.7092 -1.1488 -0.0575
16315SOL    HW250387   1.151   0.227   0.180 -0.6635 -0.1848  0.6368
16316SOL     OW50388   6.746   2.386  12.161 -0.4139  0.1935 -0.1496
16316SOL    HW150389   6.770   2.464  12.212  1.4297 -1.3695  1.5765
16316SOL    HW250390   6.662   2.359  12.197  0.5573 -0.5074  1.7301
16317SOL     OW50391   1.595   2.146   8.286 -0.6436 -0.5461 -0.6845
16317SOL    HW150392   1.663   2.170   8.223 -1.9920 -0.2247 -2.0603
16317SOL    HW250393   1.534   2.219   8.285 -2.0348 -1.6742 -0.9528
16318SOL     OW50394   5.720   7.191   0.070 -0.1144  0.0421  0.1696
16318SOL    HW150395   5.741   7.167   0.161  1.5070  0.2088 -0.1257
16318SOL    HW250396   5.697   7.283   0.075 -0.6740 -0.1062  0.4886
16319SOL     OW50397   4.566   0.118   1.406 -0.2288  0.0926  0.2475
16319SOL    HW150398   4.624   0.179   1.362 -0.5601  0.0207 -0.3017
16319SOL    HW250399   4.514   0.079   1.335 -2.4833  1.7454  0.8902
16320SOL     OW50400   0.298   3.881   0.814 -0.1210 -0.4164 -0.1168
16320SOL    HW150401   0.314   3.801   0.864 -0.6895 -0.8457 -0.6022
16320SOL    HW250402   0.212   3.911   0.843 -0.1542 -0.2940 -0.3394
16321SOL     OW50403   4.064   0.183   3.657 -0.2308  0.3773  0.5819
16321SOL    HW150404   4.155   0.195   3.629 -0.8789  2.2040 -0.9074
16321SOL    HW250405   4.037   0.100   3.617  0.8253 -0.3280  1.2745
16322SOL     OW50406   6.874   6.099  11.272 -0.0226 -0.0152 -0.3039
16322SOL    HW150407   6.932   6.023  11.282 -0.0572  0.0807  0.7063
16322SOL    HW250408   6.927   6.173  11.301 -0.2605  0.2425 -0.5165
16323SOL     OW50409   7.454   2.786   8.545 -0.1915  0.2016  1.0338
16323SOL    HW150410   7.522   2.725   8.515 -0.1269 -0.0071  1.5842
16323SOL    HW250411   7.387   2.783   8.477  0.3865  0.4664  0.4509
16324SOL     OW50412   5.135   7.215   2.909 -0.3585 -0.2488  0.2133
16324SOL    HW150413   5.082   7.149   2.952 -1.3346  0.7754  0.6426
16324SOL    HW250414   5.078   7.251   2.841  0.4356 -0.3879 -0.5531
16325SOL     OW50415   6.659   4.304   2.666  0.1899  0.0373  0.7571
16325SOL    HW150416   6.601   4.291   2.591  1.4738 -1.1647 -0.0889
16325SOL    HW250417   6.695   4.391   2.654  1.0136 -0.4521 -0.5138
16326SOL     OW50418   3.131   2.181  12.194  0.4500  0.1092  0.2090
16326SOL    HW150419   3.142   2.276  12.192 -1.1002  0.3249  0.3654
16326SOL    HW250420   3.081   2.164  12.274 -1.4856 -0.5355 -1.0562
16327SOL     OW50421   3.230   4.373   7.182  0.0515  0.0906  0.2071
16327SOL    HW150422   3.273   4.452   7.215 -0.4891  0.7486 -0.6112
16327SOL    HW250423   3.148   4.368   7.231 -0.1659  0.3545 -0.1229
16328SOL     OW50424   7.393   0.322   3.415 -0.2459 -0.0083 -0.2512
16328SOL    HW150425   7.307   0.358   3.395  0.4365  0.8652 -1.7787
16328SOL    HW250426   7.443   0.396   3.450  0.4697  0.0218 -1.2732
16329SOL     OW50427   2.694   4.007   5.584 -0.4558  0.5901 -0.1281
16329SOL    HW150428   2.744   3.928   5.562  0.7744  1.3616 -0.1831
16329SOL    HW250429   2.749   4.054   5.646 -1.8543  0.6901  1.0993
16330SOL     OW50430   5.508   2.573   2.848 -0.2826 -0.2888 -0.3125
16330SOL    HW150431   5.461   2.635   2.903  1.2839  1.3166 -0.6903
16330SOL    HW250432   5.526   2.621   2.767  3.5793 -0.0035  0.4875
16331SOL     OW50433   6.701   2.456  11.038  0.5401  0.4605 -0.2616
16331SOL    HW150434   6.624   2.495  10.998 -1.3006  0.0416  2.6002
16331SOL    HW250435   6.724   2.515  11.109  4.1145  1.5458 -2.0987
16332SOL     OW50436   3.269   3.878  11.517 -0.5035  0.6205 -0.0028
16332SOL    HW150437   3.342   3.834  11.475  0.0711  1.9007 -0.4025
16332SOL    HW250438   3.191   3.846  11.471 -0.4746 -2.2982  1.7449
16333SOL     OW50439   3.168   4.710  10.777  0.6341  0.0329  0.1249
16333SOL    HW150440   3.112   4.727  10.702 -0.3535 -2.2383  0.2784
16333SOL    HW250441   3.176   4.795  10.821 -2.2518  0.5651 -0.2101
16334SOL     OW50442   7.596   2.516   6.272  0.5442  0.4403 -0.1991
16334SOL    HW150443   7.682   2.556   6.260  1.1088 -0.8881 -0.7773
16334SOL    HW250444   7.541   2.553   6.203  1.0135  0.3168 -0.6367
16335SOL     OW50445   2.044   1.063   3.157 -0.5163  0.1397  0.0567
16335SOL    HW150446   2.096   1.064   3.238 -2.0148 -1.2706  1.1145
16335SOL    HW250447   2.100   1.104   3.092  0.0955  2.9580  2.1650
16336SOL     OW50448   5.343   6.971  11.806  0.4856 -0.3192  0.0367
16336SOL    HW150449   5.341   7.006  11.895  0.8592 -0.5260  0.1245
16336SOL    HW250450   5.427   6.926  11.799  0.7087  0.1730 -0.6024
16337SOL     OW50451   6.911   6.679   2.580 -0.0977 -0.1103 -0.1767
16337SOL    HW150452   7.000   6.715   2.584  0.6279 -1.5698 -1.9118
16337SOL    HW250453   6.923   6.585   2.588 -1.3645 -0.4088 -1.3947
16338SOL     OW50454   3.557   1.947  11.107  0.4028  0.0625  0.0958
16338SOL    HW150455   3.602   1.982  11.185  0.3200 -1.3274  0.8004
16338SOL    HW250456   3.583   1.855  11.105 -2.8887 -1.0003  0.9275
16339SOL     OW50457   3.963   0.266   2.709 -0.0018  0.3020 -0.1708
16339SOL    HW150458   3.912   0.211   2.768 -1.8784  1.6539 -0.4151
16339SOL    HW250459   3.904   0.339   2.689  2.0455  1.9416 -0.5286
16340SOL     OW50460   6.020   4.054   7.175 -0.3606 -0.4258  0.3905
16340SOL    HW150461   5.928   4.074   7.159 -0.8808 -1.8353  1.3406
16340SOL    HW250462   6.041   4.102   7.255 -0.9630 -1.8354  1.4370
16341SOL     OW50463   6.452   3.549   1.948 -0.0849  0.2956  0.6553
16341SOL    HW150464   6.436   3.493   2.025  1.5673  0.9091  1.4894
16341SOL    HW250465   6.365   3.567   1.913 -1.1609  2.0918  3.9029
16342SOL     OW50466   2.599   7.546   2.133  0.2234 -0.3328 -0.1955
16342SOL    HW150467   2.593   7.529   2.227 -2.0906 -1.3578 -0.4651
16342SOL    HW250468   2.527   7.605   2.114 -0.5850 -1.6884 -1.5920
16343SOL     OW50469   2.212   7.758  11.187 -0.3462 -0.4326 -0.3813
16343SOL    HW150470   2.277   7.829  11.187  0.1022 -0.8353 -0.4209
16343SOL    HW250471   2.176   7.758  11.098  0.5809 -1.0737 -0.7816
16344SOL     OW50472   3.071   7.611   2.925 -0.2632 -0.4409  0.6118
16344SOL    HW150473   3.152   7.624   2.975 -1.8391 -0.1150  3.2809
16344SOL    HW250474   3.061   7.515   2.921  0.7123 -0.5267 -0.6626
16345SOL     OW50475   6.044   4.806  10.559  0.1555 -0.5117  0.3596
16345SOL    HW150476   6.115   4.822  10.621  1.2729  0.3288 -1.0724
16345SOL    HW250477   6.059   4.718  10.527  0.5990 -0.3170  0.0209
16346SOL     OW50478   5.167   1.359   4.980 -0.3844 -0.5003 -0.3555
16346SOL    HW150479   5.122   1.378   4.897  1.2583  0.5666 -1.0474
16346SOL    HW250480   5.239   1.301   4.956  0.4274  0.2457  0.2337
16347SOL     OW50481   6.871   4.935   3.013 -0.0199  0.8525 -0.3728
16347SOL    HW150482   6.957   4.968   3.041  0.6726 -1.3066  0.2735
16347SOL    HW250483   6.883   4.913   2.921 -0.2968  1.7578 -0.6360
16348SOL     OW50484   7.855   1.782   7.495 -0.0358  0.0066  0.7027
16348SOL    HW150485   7.843   1.796   7.589 -0.9337  0.8808  0.4720
16348SOL    HW250486   7.793   1.711   7.475  0.7259 -0.7364  0.8968
16349SOL     OW50487   0.317   4.962  10.068  0.3713  0.0000 -0.1554
16349SOL    HW150488   0.373   4.915  10.006 -1.0064 -0.3359 -1.1705
16349SOL    HW250489   0.306   5.049  10.031 -0.5089 -0.2210 -0.4346
16350SOL     OW50490   0.178   2.396   7.678 -0.3728 -0.4525 -0.5125
16350SOL    HW150491   0.135   2.441   7.605  1.6364  1.3804 -0.6929
16350SOL    HW250492   0.181   2.462   7.748  1.0066 -0.8912 -0.1196
16351SOL     OW50493   0.944   1.707   0.580  0.1919 -0.8460  0.1455
16351SOL    HW150494   0.935   1.683   0.488  2.5709  0.8294 -0.6301
16351SOL    HW250495   1.026   1.666   0.608  1.1417  1.1764  0.5333
16352SOL     OW50496   1.070   0.696   5.315 -0.3234 -0.4464  0.0597
16352SOL    HW150497   1.036   0.773   5.360  0.9501  0.8112 -1.0530
16352SOL    HW250498   1.145   0.728   5.265  0.9675 -2.6297  0.4532
16353SOL     OW50499   0.345   4.598  10.784  0.3239 -0.2837 -0.4376
16353SOL    HW150500   0.384   4.548  10.712 -0.8823  0.6584 -1.8044
16353SOL    HW250501   0.377   4.687  10.771  1.8213 -0.4848  1.5097
16354SOL     OW50502   3.972   4.478  11.985  0.1484 -0.4882 -0.0771
16354SOL    HW150503   3.914   4.544  11.947 -3.0572 -3.3694 -0.7347
16354SOL    HW250504   3.960   4.488  12.080  0.6234  0.6048 -0.1285
16355SOL     OW50505   6.093   2.310   4.521 -0.0700  0.0394 -0.2949
16355SOL    HW150506   6.127   2.224   4.544  1.5361  0.9526  0.9435
16355SOL    HW250507   6.099   2.314   4.426  4.1763  0.4016 -0.1696
16356SOL     OW50508   5.281   7.634   7.609  0.0241  0.1417 -0.4555
16356SOL    HW150509   5.296   7.729   7.613  1.0493 -0.0491  0.5877
16356SOL    HW250510   5.268   7.617   7.516  0.1893  1.2550 -0.7069
16357SOL     OW50511   0.726   7.891   0.354 -0.5388  0.6396 -0.0761
16357SOL    HW150512   0.637   7.914   0.327 -1.9195 -2.2657  1.5063
16357SOL    HW250513   0.746   7.953   0.424 -1.7375  0.7095  0.2250
16358SOL     OW50514   1.652   2.535   5.161 -0.5216  0.4373 -0.2164
16358SOL    HW150515   1.577   2.551   5.218 -0.4972  1.4462 -0.4402
16358SOL    HW250516   1.622   2.469   5.099 -1.3699  1.1158 -0.5468
16359SOL     OW50517   4.095   1.714  11.778  0.5072  0.5265  0.1373
16359SOL    HW150518   4.104   1.654  11.704 -1.6986 -0.6657  0.7342
16359SOL    HW250519   4.016   1.765  11.758  0.7242  1.2194  0.9779
16360SOL     OW50520   4.858   3.061   9.214  0.0435  0.0662 -0.0600
16360SOL    HW150521   4.928   3.044   9.277 -0.3774  1.0045  0.6813
16360SOL    HW250522   4.904   3.087   9.134  0.5494  1.1427  0.5610
16361SOL     OW50523   4.396   2.866   7.658 -0.4499 -0.0443  0.0828
16361SOL    HW150524   4.351   2.901   7.581 -0.3942 -1.8518 -0.8406
16361SOL    HW250525   4.374   2.927   7.729 -2.3183  0.4851 -0.8806
16362SOL     OW50526   7.758   5.950   2.934 -0.3796 -0.2237 -0.3450
16362SOL    HW150527   7.822   5.909   2.991 -1.1756  0.9108  1.4614
16362SOL    HW250528   7.733   5.882   2.871  1.7160 -1.0114 -0.3782
16363SOL     OW50529   6.281   1.213   2.254  0.0816 -0.4445  0.5123
16363SOL    HW150530   6.306   1.218   2.162  2.9459  1.4166  1.2334
16363SOL    HW250531   6.318   1.131   2.285  0.4139 -0.3739  0.3068
16364SOL     OW50532   7.901   1.699   7.777  0.4779  0.0368 -0.1136
16364SOL    HW150533   7.931   1.790   7.779 -1.5984  0.7748  0.2379
16364SOL    HW250534   7.881   1.679   7.868  2.5562 -1.4338  0.1011
16365SOL     OW50535   6.716   4.582   7.049 -0.1348 -0.1341  0.2193
16365SOL    HW150536   6.720   4.675   7.072  0.8571 -0.5495  1.8467
16365SOL    HW250537   6.683   4.539   7.128 -2.4906 -1.0118 -1.1155
16366SOL     OW50538   5.333   1.761  11.001 -0.6362 -0.0110  0.0482
16366SOL    HW150539   5.276   1.794  10.931  1.0874 -1.8121 -2.3918
16366SOL    HW250540   5.379   1.839  11.033 -1.1630  0.8372 -1.1644
16367SOL     OW50541   6.250   3.439   3.306  0.0565 -0.3056 -0.1691
16367SOL    HW150542   6.200   3.425   3.386 -0.1589  2.5031  0.3145
16367SOL    HW250543   6.317   3.503   3.331  0.1383  0.4597 -2.1651
16368SOL     OW50544   4.787   4.472   8.461 -0.8341  0.1153 -0.3007
16368SOL    HW150545   4.732   4.498   8.387  0.4073 -3.0221 -2.5459
16368SOL    HW250546   4.871   4.450   8.422  0.1839 -0.7747  2.1931
16369SOL     OW50547   7.350   6.399   6.754  0.1688 -0.4594 -0.1192
16369SOL    HW150548   7.304   6.451   6.687  2.1342  1.6243  0.0330
16369SOL    HW250549   7.424   6.360   6.707  0.4363 -0.6111  0.4294
16370SOL     OW50550   6.318   7.399   6.156  0.0878 -0.8363 -0.0517
16370SOL    HW150551   6.408   7.423   6.134  0.0090 -0.3283  0.1835
16370SOL    HW250552   6.272   7.482   6.166 -1.0539 -1.0275 -2.6937
16371SOL     OW50553   0.343   2.315   2.933  0.1606 -0.4819  0.3588
16371SOL    HW150554   0.305   2.231   2.906 -0.5363  0.2956 -1.2415
16371SOL    HW250555   0.392   2.345   2.856  2.6104 -0.5993  1.7712
16372SOL     OW50556   1.864   2.333  12.030 -0.9238  0.8401 -0.0958
16372SOL    HW150557   1.883   2.325  11.937 -0.9394  1.6677 -0.1820
16372SOL    HW250558   1.771   2.314  12.037 -0.5862 -0.9309  0.0041
16373SOL     OW50559   6.373   7.561   8.453 -0.2390  0.1792 -0.0235
16373SOL    HW150560   6.315   7.546   8.528 -2.4521  0.7183 -1.5234
16373SOL    HW250561   6.364   7.655   8.434 -0.3815 -0.0921 -1.4215
16374SOL     OW50562   0.619   0.005   1.290 -0.0738  0.1175  0.3447
16374SOL    HW150563   0.664   0.058   1.224 -1.0907 -0.3004 -0.7119
16374SOL    HW250564   0.533  -0.013   1.252 -0.7752  0.0722  1.8987
16375SOL     OW50565   7.203   6.146  11.899  0.3231 -0.7802  0.1761
16375SOL    HW150566   7.253   6.069  11.874  1.3076 -0.5558  1.3710
16375SOL    HW250567   7.248   6.181  11.976 -0.6130  0.4850  0.1935
16376SOL     OW50568   1.326   4.847  10.778 -0.2358  0.3491 -0.2690
16376SOL    HW150569   1.357   4.804  10.858  0.3506  1.6021  0.2087
16376SOL    HW250570   1.312   4.938  10.804 -1.7170  0.4071 -1.1804
16377SOL     OW50571   3.408   7.522   4.989  0.2617 -0.0082  0.4919
16377SOL    HW150572   3.376   7.432   4.997 -1.0536  0.5211  1.4289
16377SOL    HW250573   3.495   7.513   4.948  1.7892 -2.0144  3.7690
16378SOL     OW50574   6.567   5.921   2.896 -0.3392  0.0644 -0.3500
16378SOL    HW150575   6.594   5.838   2.857 -0.5203 -0.5534  0.7985
16378SOL    HW250576   6.531   5.971   2.823 -0.3405 -0.9145 -1.0445
16379SOL     OW50577   1.503   2.782  12.244  0.2742  0.5389  0.2910
16379SOL    HW150578   1.444   2.811  12.313  1.1274  0.5231  1.0500
16379SOL    HW250579   1.480   2.836  12.168  0.1709  1.4466  0.9546
16380SOL     OW50580   4.017   3.737  10.786  0.2167 -0.0003  0.3085
16380SOL    HW150581   4.064   3.657  10.762 -1.0458  0.0257 -2.5769
16380SOL    HW250582   4.062   3.807  10.737 -0.8329  0.5020  0.0421
16381SOL     OW50583   1.491   6.979   7.869  0.1048 -0.1815 -0.0300
16381SOL    HW150584   1.551   6.913   7.837  0.3777 -0.0998  0.3072
16381SOL    HW250585   1.420   6.981   7.805 -0.2208 -1.2375  0.2750
16382SOL     OW50586   7.801   1.705   8.019 -0.3045 -0.6513  0.5249
16382SOL    HW150587   7.721   1.659   8.047 -1.7569  0.7157 -1.1710
16382SOL    HW250588   7.784   1.797   8.040  0.1419 -0.1321 -1.2494
16383SOL     OW50589   3.953   6.063   1.856 -0.3381 -0.0558  0.6445
16383SOL    HW150590   3.911   5.981   1.829 -1.1443  0.8765 -1.1012
16383SOL    HW250591   3.911   6.084   1.939 -2.7611  0.3610 -0.5961
16384SOL     OW50592   1.686   7.658   8.859  0.5398  0.2996 -0.0915
16384SOL    HW150593   1.658   7.723   8.794  0.6941 -0.1227 -0.5885
16384SOL    HW250594   1.605   7.617   8.888  0.6370 -2.0848 -2.7417
16385SOL     OW50595   0.036   2.035  10.825  0.4884 -0.3889 -0.1897
16385SOL    HW150596   0.024   2.108  10.765 -0.7500 -0.3949  0.0276
16385SOL    HW250597   0.127   2.006  10.811  0.9857  1.1620 -0.2864
16386SOL     OW50598   2.747   7.864   9.786  0.2566  0.2844 -0.1326
16386SOL    HW150599   2.659   7.894   9.810  0.2521 -0.1648  0.4282
16386SOL    HW250600   2.778   7.816   9.863 -0.3082 -2.3980 -1.4746
16387SOL     OW50601   1.263   4.332   4.890  0.0653  0.0486 -0.3714
16387SOL    HW150602   1.244   4.424   4.907 -2.3927 -0.4039 -0.2248
16387SOL    HW250603   1.346   4.316   4.934 -0.5796  1.6652  1.6026
16388SOL     OW50604   0.730   4.598   8.672 -0.2143  0.0971  0.1714
16388SOL    HW150605   0.798   4.544   8.712 -0.6999 -0.0928  0.7583
16388SOL    HW250606   0.652   4.543   8.674 -0.4508  0.4165 -0.2435
16389SOL     OW50607   4.195   0.405   1.427 -0.2226  0.0059  0.2622
16389SOL    HW150608   4.262   0.438   1.367 -1.2972 -0.3299 -1.1779
16389SOL    HW250609   4.114   0.447   1.397 -1.0722 -1.4769  0.4170
16390SOL     OW50610   1.965   2.920   2.832 -0.7462 -0.0452  0.1421
16390SOL    HW150611   1.884   2.917   2.780  0.3432 -0.2734 -1.6387
16390SOL    HW250612   2.031   2.956   2.772  0.7871 -1.1667  1.0712
16391SOL     OW50613   2.721   5.084   6.490  0.6192  0.0921  0.0269
16391SOL    HW150614   2.814   5.073   6.508  0.4831 -0.1342  0.6249
16391SOL    HW250615   2.697   5.007   6.439  0.0864 -1.5276  2.5770
16392SOL     OW50616   7.427   3.733   5.875  0.0364 -0.8347 -0.3559
16392SOL    HW150617   7.519   3.706   5.875  0.0740 -0.7035  0.1480
16392SOL    HW250618   7.384   3.674   5.936  0.1446  0.3094  0.8701
16393SOL     OW50619   0.390   7.358   4.539  0.0007  0.5787 -0.1734
16393SOL    HW150620   0.387   7.314   4.454  0.3280 -2.4133  1.2330
16393SOL    HW250621   0.301   7.392   4.551  0.1242  1.6604 -1.9309
16394SOL     OW50622   2.136   6.640   9.563 -0.6648  0.2665  0.2394
16394SOL    HW150623   2.131   6.732   9.537  0.9481 -0.0023 -1.1916
16394SOL    HW250624   2.104   6.592   9.487  1.5356 -0.4398 -0.3106
16395SOL     OW50625   0.499   3.205  11.942 -0.5946 -0.0493  0.5906
16395SOL    HW150626   0.409   3.228  11.923 -0.4353  0.6010  0.6024
16395SOL    HW250627   0.494   3.120  11.986 -1.2510  0.2981  1.1973
16396SOL     OW50628   0.745   2.254   1.337  0.0985  0.5135 -0.2006
16396SOL    HW150629   0.699   2.185   1.385  0.4806  0.7617  0.5378
16396SOL    HW250630   0.815   2.208   1.290 -0.0653  0.3137 -0.2505
16397SOL     OW50631   1.238   0.447  10.559 -0.7288 -0.5113 -0.5630
16397SOL    HW150632   1.285   0.519  10.600 -0.2413 -1.3170  0.3427
16397SOL    HW250633   1.178   0.489  10.498 -1.7746  0.7849  1.2593
16398SOL     OW50634   5.240   6.459   6.721  0.1039  0.0304  0.6769
16398SOL    HW150635   5.270   6.550   6.720  0.2700  0.0007 -1.0931
16398SOL    HW250636   5.320   6.408   6.734  0.5476  0.0535 -1.5453
16399SOL     OW50637   1.750   5.957   4.116  0.0408 -0.1351  0.1326
16399SOL    HW150638   1.828   5.971   4.063  1.1148  0.0563  1.6798
16399SOL    HW250639   1.677   5.988   4.062  1.1855  0.9715 -0.8250
16400SOL     OW50640   0.961   4.371   7.235  0.0751  0.5455 -0.1166
16400SOL    HW150641   0.915   4.410   7.310  0.9217  0.1562  0.6247
16400SOL    HW250642   1.033   4.321   7.275  0.4977  0.2804 -1.1914
16401SOL     OW50643   4.817   1.042  11.499  0.4598 -0.0659 -0.1829
16401SOL    HW150644   4.723   1.024  11.499  0.3626  0.2972 -1.6569
16401SOL    HW250645   4.826   1.120  11.554 -0.0569 -0.3083  0.2506
16402SOL     OW50646   5.669   0.566   7.041  0.3457 -0.2374  0.4678
16402SOL    HW150647   5.622   0.617   6.976 -0.4586  0.6870  1.7089
16402SOL    HW250648   5.661   0.476   7.012 -0.5418  0.0948 -0.3747
16403SOL     OW50649   2.180   4.549   2.701 -0.1855 -0.0380 -0.1182
16403SOL    HW150650   2.260   4.524   2.655 -0.1740 -0.0052 -0.1159
16403SOL    HW250651   2.209   4.577   2.788 -0.0515  1.2818 -0.5687
16404SOL     OW50652   6.433   0.750   4.929 -0.2680  0.0619 -0.2524
16404SOL    HW150653   6.394   0.705   5.004 -0.5869 -0.7679 -0.8964
16404SOL    HW250654   6.362   0.801   4.891 -0.1807  0.2474 -0.1689
16405SOL     OW50655   4.959   4.993   6.957  0.4095  0.1340 -0.7216
16405SOL    HW150656   5.002   4.914   6.988  1.4714  0.8690 -0.2780
16405SOL    HW250657   4.909   5.024   7.032 -0.2779 -0.2866 -0.9968
16406SOL     OW50658   3.806   0.089   3.165 -0.3009 -0.4012  0.1025
16406SOL    HW150659   3.712   0.098   3.147  0.2774  1.7446 -2.2902
16406SOL    HW250660   3.833   0.175   3.198  1.1211 -0.4382 -0.8796
16407SOL     OW50661   7.593   0.393   0.950  0.2788  0.1994  0.2648
16407SOL    HW150662   7.498   0.383   0.965  0.4459  0.9321  2.0387
16407SOL    HW250663   7.601   0.476   0.904  0.0653  0.3264  0.4485
16408SOL     OW50664   4.166   0.237   0.735 -0.2128 -0.4313 -0.2382
16408SOL    HW150665   4.088   0.293   0.739 -0.4380 -0.6831 -0.9387
16408SOL    HW250666   4.217   0.273   0.662 -0.2070 -0.9457 -0.4929
16409SOL     OW50667   5.908   5.706   3.516 -0.0043 -0.2168  0.5961
16409SOL    HW150668   5.971   5.637   3.494 -0.2913  0.2733 -2.0497
16409SOL    HW250669   5.850   5.665   3.580  1.7473 -1.3352  1.5694
16410SOL     OW50670   0.753   7.171  11.501 -0.2240  0.8249  0.4419
16410SOL    HW150671   0.812   7.136  11.568 -2.1862  0.5041  2.0805
16410SOL    HW250672   0.767   7.266  11.504  0.6280  0.7148  0.3446
16411SOL     OW50673   4.854   2.282  12.234  0.4812  0.6319 -0.0149
16411SOL    HW150674   4.907   2.325  12.301  0.0050 -0.3309  1.0144
16411SOL    HW250675   4.809   2.212  12.281 -0.4375  0.3991 -1.2048
16412SOL     OW50676   4.742   7.095   6.505  0.3077  0.1934 -0.2902
16412SOL    HW150677   4.774   7.049   6.427  0.6119 -0.5455  0.2658
16412SOL    HW250678   4.756   7.034   6.577 -3.1733 -0.5715 -0.0818
16413SOL     OW50679   7.698   5.387   1.663 -0.4163 -0.2802  0.4705
16413SOL    HW150680   7.657   5.401   1.577  3.4649 -0.6811 -1.7068
16413SOL    HW250681   7.725   5.474   1.691  1.6463 -0.4734 -0.7079
16414SOL     OW50682   7.234   4.934   2.891  0.0311  0.2503 -0.0725
16414SOL    HW150683   7.174   4.962   2.823  2.1297 -1.7115 -2.9708
16414SOL    HW250684   7.214   4.841   2.904  0.8111  0.1778  0.7568
16415SOL     OW50685   2.551   5.577   5.838 -0.8072  0.0109  0.1036
16415SOL    HW150686   2.461   5.593   5.869 -0.4607  0.3560  0.9482
16415SOL    HW250687   2.547   5.594   5.744 -1.3499  1.2825  0.3280
16416SOL     OW50688   6.804   3.406   4.207  0.4476  0.0214 -0.1336
16416SOL    HW150689   6.884   3.427   4.254 -0.8792  0.7344  1.9571
16416SOL    HW250690   6.820   3.434   4.117  3.1163 -1.4442 -0.2051
16417SOL     OW50691   7.191   6.407   1.061 -1.3447  0.4445  0.0406
16417SOL    HW150692   7.235   6.483   1.023 -0.6261  0.3726  0.6987
16417SOL    HW250693   7.225   6.332   1.012 -0.8006  0.4009  0.4689
16418SOL     OW50694   1.513   7.760  10.978 -0.0443 -0.2355 -0.0607
16418SOL    HW150695   1.441   7.712  11.020  1.0854  0.2737  2.6706
16418SOL    HW250696   1.519   7.841  11.029  2.6838 -0.4344  0.0517
16419SOL     OW50697   3.509   7.396   3.616  0.1070  0.6258 -0.8173
16419SOL    HW150698   3.447   7.459   3.578 -0.6250  1.0672  0.9945
16419SOL    HW250699   3.477   7.311   3.589 -3.2225  0.5838  2.4293
16420SOL     OW50700   3.764   2.939  10.725  0.6392  0.3757  0.0315
16420SOL    HW150701   3.840   2.958  10.671  0.0013  1.0253 -0.6640
16420SOL    HW250702   3.714   2.875  10.674  0.7165 -0.0483  0.4843
16421SOL     OW50703   2.814   5.718   5.215 -0.2263 -0.0216  0.2309
16421SOL    HW150704   2.746   5.751   5.156  0.8986  0.4947 -0.8140
16421SOL    HW250705   2.798   5.763   5.298 -0.6079  0.7950 -0.2744
16422SOL     OW50706   5.135   6.532   7.640 -0.5699  0.3631  0.1323
16422SOL    HW150707   5.121   6.627   7.634 -0.3304  0.3406 -0.9851
16422SOL    HW250708   5.139   6.502   7.549 -0.9900 -0.7789  0.4705
16423SOL     OW50709   5.429   4.094  10.657 -0.1998 -0.4917  0.1922
16423SOL    HW150710   5.359   4.038  10.622 -0.2062  0.0078 -0.6295
16423SOL    HW250711   5.507   4.067  10.609  0.5885 -2.2045  2.2697
16424SOL     OW50712   3.199   1.011  10.452  0.8633  0.3804  0.0126
16424SOL    HW150713   3.133   1.010  10.383  0.0200 -1.1324  0.7968
16424SOL    HW250714   3.224   1.103  10.460  1.1614  0.5774 -2.4447
16425SOL     OW50715   1.772   3.527  10.909 -0.3235  0.1272  0.0137
16425SOL    HW150716   1.766   3.433  10.930  0.7510  0.1115  0.3258
16425SOL    HW250717   1.720   3.570  10.977  0.0477 -0.1816  0.5018
16426SOL     OW50718   0.859   3.794   5.119  0.3829 -0.0135  0.2104
16426SOL    HW150719   0.810   3.875   5.106  0.7406  0.2697  0.6034
16426SOL    HW250720   0.856   3.751   5.034 -1.4803 -0.5421  0.5104
16427SOL     OW50721   2.212   5.541   5.750 -0.0762 -0.3677  0.0581
16427SOL    HW150722   2.120   5.567   5.741 -0.0462 -0.8174 -2.1735
16427SOL    HW250723   2.260   5.601   5.693  1.1667  0.3092  1.7143
16428SOL     OW50724   0.816   1.393   4.396 -0.2696 -0.1299 -0.3099
16428SOL    HW150725   0.883   1.447   4.356 -0.0317 -1.2574 -1.5287
16428SOL    HW250726   0.825   1.308   4.352 -0.2740 -1.3374  1.8882
16429SOL     OW50727   5.226   6.025   7.036 -1.1851 -0.5480  0.1126
16429SOL    HW150728   5.297   6.076   7.076 -1.7030  1.1737 -1.0130
16429SOL    HW250729   5.243   6.033   6.942 -2.1728 -1.1839 -0.1277
16430SOL     OW50730   4.361   4.188  11.760 -0.3317  0.4644  0.0323
16430SOL    HW150731   4.362   4.256  11.827  0.5658 -0.2950  0.8192
16430SOL    HW250732   4.345   4.235  11.678  1.0699  1.7216  0.4392
16431SOL     OW50733   3.757   0.763   6.723  0.1661 -0.4092  0.1813
16431SOL    HW150734   3.802   0.768   6.639 -0.5916 -1.0537 -0.2813
16431SOL    HW250735   3.792   0.684   6.764 -1.6176 -1.8532 -0.8802
16432SOL     OW50736   6.121   7.188   0.811 -0.1641  0.0290 -0.6601
16432SOL    HW150737   6.167   7.150   0.736  1.1601  1.2474 -0.4890
16432SOL    HW250738   6.156   7.141   0.887 -1.0218 -0.7355 -0.7075
16433SOL     OW50739   6.939   7.267   8.407  0.2660 -0.2329  0.0313
16433SOL    HW150740   6.931   7.180   8.446  1.1007 -0.5055 -0.3779
16433SOL    HW250741   6.898   7.260   8.321 -2.5908  0.6638  1.1940
16434SOL     OW50742   0.323   4.183  11.368  0.1670  0.0048 -0.4661
16434SOL    HW150743   0.311   4.175  11.463 -0.2563 -1.0215 -0.5906
16434SOL    HW250744   0.247   4.234  11.339 -0.0002 -0.1521 -0.3145
16435SOL     OW50745   4.510   7.599   2.494  0.0083 -0.4996 -0.3896
16435SOL    HW150746   4.555   7.673   2.535 -0.5535 -0.3162 -0.0940
16435SOL    HW250747   4.434   7.584   2.549  0.4731 -1.7453 -0.0587
16436SOL     OW50748   1.289   4.620   7.289 -0.4715 -0.0245 -0.1921
16436SOL    HW150749   1.379   4.643   7.268  0.8749 -2.8879  1.8795
16436SOL    HW250750   1.247   4.607   7.204  1.4450  0.0076 -1.1953
16437SOL     OW50751   3.186   5.440   5.788  0.0111  0.2754 -0.2941
16437SOL    HW150752   3.178   5.428   5.693  1.0039 -2.1437 -0.1454
16437SOL    HW250753   3.260   5.499   5.798  1.1036 -0.9258 -1.0178
16438SOL     OW50754   4.180   6.972   5.178 -0.0907  0.4018 -0.2005
16438SOL    HW150755   4.234   6.895   5.194 -2.5710 -1.2874  0.6903
16438SOL    HW250756   4.112   6.943   5.117 -0.1977  2.3573 -1.1107
16439SOL     OW50757   0.967   5.295   2.011 -0.0420  0.4778  0.5344
16439SOL    HW150758   0.872   5.301   1.999  0.0388  0.7163  0.0002
16439SOL    HW250759   0.992   5.215   1.964  0.1823  1.0519 -0.3407
16440SOL     OW50760   1.318   5.966   7.518 -0.1689 -0.4529 -0.4007
16440SOL    HW150761   1.303   5.873   7.535  0.5608 -0.8034 -1.5160
16440SOL    HW250762   1.389   5.991   7.576 -0.7047 -0.4538  0.2629
16441SOL     OW50763   0.313   1.517   3.526  0.3054  0.0905 -0.7164
16441SOL    HW150764   0.367   1.538   3.603  0.6994 -0.1981 -0.9093
16441SOL    HW250765   0.323   1.423   3.515 -0.7683 -0.0793 -0.3671
16442SOL     OW50766   6.943   1.862   1.552 -0.1517 -0.4022 -0.0524
16442SOL    HW150767   6.992   1.780   1.551 -0.4395 -0.5699 -1.7822
16442SOL    HW250768   6.852   1.837   1.535 -0.4111  0.1802  0.4168
16443SOL     OW50769   6.825   5.464   1.812 -0.0996  0.2076  0.0813
16443SOL    HW150770   6.841   5.532   1.877 -1.2321  0.0341  0.5779
16443SOL    HW250771   6.730   5.469   1.795 -0.2709 -1.4423  0.3741
16444SOL     OW50772   4.144   0.810   5.665 -0.1691  0.5090 -0.7636
16444SOL    HW150773   4.197   0.759   5.604  0.9665  0.5025  0.1900
16444SOL    HW250774   4.182   0.898   5.663  0.1584  0.4086  0.2203
16445SOL     OW50775   4.771   6.314  11.884 -0.5985  0.0747  0.0095
16445SOL    HW150776   4.755   6.344  11.974  0.9604 -1.6923  0.9391
16445SOL    HW250777   4.729   6.228  11.880  1.2298 -0.8492 -0.2050
16446SOL     OW50778   6.647   0.043  10.474  0.0547  0.0636 -0.1859
16446SOL    HW150779   6.656   0.138  10.464  0.5655 -0.0775 -1.1021
16446SOL    HW250780   6.721   0.018  10.528 -1.7108  0.5676  2.7024
16447SOL     OW50781   7.015   4.689   5.801 -0.0095 -0.1564  0.1627
16447SOL    HW150782   7.061   4.628   5.858 -0.4106 -1.7415 -1.1155
16447SOL    HW250783   7.083   4.724   5.743  0.1307  0.2121  0.5435
16448SOL     OW50784   3.008   0.142   9.107  0.2278 -0.4667  0.3129
16448SOL    HW150785   2.915   0.118   9.103  0.6362 -2.0587 -1.0006
16448SOL    HW250786   3.043   0.112   9.023  1.7303  1.1047  0.3180
16449SOL     OW50787   1.049   1.210   3.822  0.4122 -0.1681  0.8850
16449SOL    HW150788   1.095   1.228   3.740  0.6609 -2.1241  0.5597
16449SOL    HW250789   0.957   1.229   3.802  0.4925 -0.4715  0.2006
16450SOL     OW50790   1.896   2.373  11.291 -0.0946 -0.4993  0.2794
16450SOL    HW150791   1.815   2.366  11.341 -0.9901 -2.5472 -1.2949
16450SOL    HW250792   1.898   2.463  11.260 -1.8351 -0.4462  0.2754
16451SOL     OW50793   0.203   0.361  11.408  0.1446 -0.3012  0.1144
16451SOL    HW150794   0.212   0.382  11.501  1.7502 -0.9442  0.1394
16451SOL    HW250795   0.287   0.387  11.370 -1.3129  2.2807 -1.6632
16452SOL     OW50796   3.195   2.475   4.064 -0.3893  0.1251 -0.1492
16452SOL    HW150797   3.146   2.395   4.083 -1.3780  0.9751  1.0082
16452SOL    HW250798   3.247   2.491   4.143  1.2390 -0.3548 -1.0725
16453SOL     OW50799   1.276   2.368  11.463  0.0423  0.6824 -0.5869
16453SOL    HW150800   1.277   2.274  11.482 -0.4680  0.5951 -1.0019
16453SOL    HW250801   1.278   2.373  11.368  0.8331  1.1067 -0.5579
16454SOL     OW50802   7.869   7.476   4.251 -0.3350  0.3511  0.3561
16454SOL    HW150803   7.944   7.535   4.244 -0.6926  0.9842  1.5240
16454SOL    HW250804   7.903   7.390   4.229  0.5482  0.7554  0.1171
16455SOL     OW50805   4.521   6.772  12.454  0.0935  0.3401  0.7644
16455SOL    HW150806   4.481   6.784  12.540  1.3731  1.6689  1.2239
16455SOL    HW250807   4.500   6.852  12.406 -1.6454 -0.8933 -0.6457
16456SOL     OW50808   6.818   0.837   9.372 -0.3070  0.0865 -0.1683
16456SOL    HW150809   6.879   0.842   9.446 -0.0100 -2.1158 -0.1908
16456SOL    HW250810   6.784   0.926   9.362 -0.3667  0.4420  2.6053
16457SOL     OW50811   5.484   3.931   0.913  0.2239  0.0741 -0.1694
16457SOL    HW150812   5.429   4.007   0.932 -0.3301 -0.3027 -0.2646
16457SOL    HW250813   5.555   3.966   0.859  0.2816  0.6274  0.2522
16458SOL     OW50814   3.732   4.785   3.079  0.4272  0.8598 -0.1604
16458SOL    HW150815   3.791   4.769   3.153  0.5723  1.3087 -0.1792
16458SOL    HW250816   3.781   4.844   3.022  1.3043 -1.2838 -1.7750
16459SOL     OW50817   1.597   5.928   2.849 -0.2003  0.2115  0.5674
16459SOL    HW150818   1.615   5.951   2.758 -0.2793  2.3754  1.0462
16459SOL    HW250819   1.549   5.845   2.843 -1.6566  1.0908 -1.4935
16460SOL     OW50820   0.396   4.641   3.994 -0.5296  0.6615 -0.1604
16460SOL    HW150821   0.344   4.619   3.917 -0.0299 -0.2659 -0.2561
16460SOL    HW250822   0.363   4.726   4.023  0.3467  1.8065 -2.3233
16461SOL     OW50823   0.711   3.270   3.262 -0.2411  0.0551 -0.0700
16461SOL    HW150824   0.696   3.364   3.258 -0.1558  0.0816  0.1985
16461SOL    HW250825   0.624   3.232   3.276 -0.3600  0.0490 -0.7727
16462SOL     OW50826   3.772   0.069  10.449  0.2874 -0.3354 -0.1891
16462SOL    HW150827   3.723  -0.012  10.437 -0.2341 -0.0397 -0.1013
16462SOL    HW250828   3.710   0.138  10.428  0.9871  0.0272 -1.1133
16463SOL     OW50829   3.860   6.510   8.271  0.0304  0.3056 -0.0003
16463SOL    HW150830   3.856   6.417   8.251 -0.7259 -0.0928  1.8766
16463SOL    HW250831   3.768   6.538   8.275  0.1935  0.7220  1.1597
16464SOL     OW50832   4.357   2.084   8.019 -0.1601  0.2714 -0.3550
16464SOL    HW150833   4.436   2.110   8.066 -0.5889  0.5910  0.2187
16464SOL    HW250834   4.298   2.052   8.088 -0.7715  0.6585 -0.6836
16465SOL     OW50835   3.368   4.502   6.946  0.2595 -0.4767  0.4745
16465SOL    HW150836   3.334   4.459   7.024  0.2939 -1.3829  0.0071
16465SOL    HW250837   3.317   4.582   6.938  0.9639  0.1729  2.0061
16466SOL     OW50838   5.844   5.997   1.628 -0.0985  0.1500  0.1370
16466SOL    HW150839   5.868   6.033   1.714 -3.6721 -2.7096  2.6715
16466SOL    HW250840   5.875   5.906   1.631 -3.6907 -1.2551  0.3291
16467SOL     OW50841   2.489   6.735   2.591 -0.5306  0.1047  0.5218
16467SOL    HW150842   2.542   6.657   2.607  1.0661  0.6650 -1.6054
16467SOL    HW250843   2.538   6.785   2.526 -1.4245  2.9781  1.8813
16468SOL     OW50844   2.983   0.286  11.994 -0.3654 -0.2123 -0.4809
16468SOL    HW150845   2.972   0.194  11.972  3.4214 -1.5833  2.3942
16468SOL    HW250846   3.070   0.309  11.962  0.4505  1.0578  2.3559
16469SOL     OW50847   2.879   2.888   2.938 -0.0889  0.0567  0.3619
16469SOL    HW150848   2.788   2.913   2.925 -0.3748 -1.1532 -0.1265
16469SOL    HW250849   2.878   2.833   3.017  0.4407  1.1135  1.1301
16470SOL     OW50850   3.333   3.229   2.118  0.0625  0.0640  0.3206
16470SOL    HW150851   3.373   3.230   2.032  0.3159 -1.8097  0.3681
16470SOL    HW250852   3.240   3.245   2.102  0.1408 -0.0835 -0.2804
16471SOL     OW50853   7.540   6.350   9.652 -0.3205  0.3797  0.2632
16471SOL    HW150854   7.522   6.369   9.559 -0.7684  2.4384  0.7177
16471SOL    HW250855   7.459   6.311   9.684  0.1438 -1.1900 -0.3940
16472SOL     OW50856   5.906   1.159   7.310  0.6574  0.2977  0.2618
16472SOL    HW150857   5.959   1.098   7.362  1.1727 -0.3108 -0.9371
16472SOL    HW250858   5.967   1.195   7.246 -0.2078  0.0854 -0.7148
16473SOL     OW50859   5.197   0.286   8.087 -0.2409  0.0322  0.2675
16473SOL    HW150860   5.286   0.315   8.069 -0.3888  0.6817  0.5646
16473SOL    HW250861   5.141   0.348   8.041 -0.5404 -0.7254 -0.4292
16474SOL     OW50862   0.656   3.295  10.780 -0.1572 -0.7581  0.1357
16474SOL    HW150863   0.626   3.303  10.870 -1.8698  0.6978 -0.5006
16474SOL    HW250864   0.711   3.373  10.766  0.3921 -1.1603  0.0096
16475SOL     OW50865   3.915   2.506  10.609 -0.2655  0.5090  0.0618
16475SOL    HW150866   3.919   2.418  10.648  1.0758  0.8070  0.6897
16475SOL    HW250867   3.974   2.501  10.533 -1.1588  0.5344 -0.6405
16476SOL     OW50868   7.454   7.505  10.191  0.2554  0.2927  0.2465
16476SOL    HW150869   7.536   7.486  10.146  0.4428  1.3760  0.1093
16476SOL    HW250870   7.441   7.430  10.249  0.9553 -0.2416 -0.2660
16477SOL     OW50871   3.455   2.915   5.679  0.2085  0.1876  0.5325
16477SOL    HW150872   3.397   2.987   5.653  0.5602  0.6784  1.0867
16477SOL    HW250873   3.474   2.931   5.771  1.8071  0.4586  0.1940
16478SOL     OW50874   5.753   1.209   8.818 -0.0970 -0.1763 -0.0794
16478SOL    HW150875   5.731   1.159   8.897 -0.3608  0.2251  0.1022
16478SOL    HW250876   5.685   1.277   8.813 -1.9002 -1.9636 -2.2642
16479SOL     OW50877   5.786   1.403   0.754  0.9186  0.6017 -0.1460
16479SOL    HW150878   5.848   1.423   0.683  1.7855  0.5579  0.5917
16479SOL    HW250879   5.723   1.475   0.751  0.1280 -0.0821 -1.8276
16480SOL     OW50880   0.678   2.775   8.409 -0.1079 -0.3696  0.1105
16480SOL    HW150881   0.602   2.810   8.363  1.3347  1.5799 -0.9406
16480SOL    HW250882   0.654   2.779   8.502 -1.2683  0.2087 -0.2040
16481SOL     OW50883   5.769   6.455   8.578 -0.5641  0.0687  1.0330
16481SOL    HW150884   5.807   6.451   8.490 -0.4639  0.8507  1.0290
16481SOL    HW250885   5.828   6.404   8.632 -1.0945 -1.1469  0.4912
16482SOL     OW50886   1.275   3.688   1.410 -0.7847 -0.2341 -0.5379
16482SOL    HW150887   1.339   3.695   1.481 -1.9379 -1.2943  0.6478
16482SOL    HW250888   1.219   3.764   1.420 -0.6676 -0.1365 -0.6134
16483SOL     OW50889   5.729   2.438  11.278 -0.5760 -0.3939  0.2416
16483SOL    HW150890   5.704   2.445  11.370  1.8409  0.8989  0.8887
16483SOL    HW250891   5.727   2.527  11.244  2.3776 -0.1932  0.2585
16484SOL     OW50892   7.919   2.589   9.544  0.5469  0.1428  0.2250
16484SOL    HW150893   7.955   2.674   9.520 -1.9934  1.2984  0.1047
16484SOL    HW250894   7.988   2.526   9.524  3.7495  2.3568  3.1014
16485SOL     OW50895   2.160   7.652   7.991  0.1883 -0.5343  0.0644
16485SOL    HW150896   2.216   7.607   7.927 -0.3932 -2.5961  0.9111
16485SOL    HW250897   2.077   7.604   7.987 -1.0043  1.4445 -0.0015
16486SOL     OW50898   1.323   2.630   4.512  0.6611  0.0799  0.0424
16486SOL    HW150899   1.244   2.584   4.486 -0.8856  0.4981  3.4375
16486SOL    HW250900   1.295   2.721   4.522  2.5685  1.0224 -2.2387
16487SOL     OW50901   0.448   4.874   2.092  0.0527  0.3542 -0.4406
16487SOL    HW150902   0.364   4.844   2.058  0.7246 -0.5578 -1.3625
16487SOL    HW250903   0.511   4.811   2.058  1.1069  0.9785  0.3016
16488SOL     OW50904   7.093   5.050   3.100  0.4286  0.3306 -0.2981
16488SOL    HW150905   7.089   5.145   3.109  1.1143  0.3320  0.0784
16488SOL    HW250906   7.171   5.034   3.047  0.2383 -0.0148 -0.4766
16489SOL     OW50907   2.607   3.818  10.699  0.0371 -0.0423 -0.1422
16489SOL    HW150908   2.548   3.854  10.633 -0.0079  0.8825  0.3742
16489SOL    HW250909   2.549   3.795  10.772 -0.1617 -2.8230 -1.0850
16490SOL     OW50910   0.633   6.230   9.009  0.1834 -0.0039  0.1766
16490SOL    HW150911   0.616   6.140   9.035 -0.3865  0.2590  0.7480
16490SOL    HW250912   0.723   6.246   9.036  0.0849 -0.2098  0.6314
16491SOL     OW50913   5.820   3.473   6.087 -0.1820  0.3462  0.3643
16491SOL    HW150914   5.862   3.549   6.046  0.5088 -0.2462 -0.0697
16491SOL    HW250915   5.792   3.504   6.173  2.6625  0.3807  1.3945
16492SOL     OW50916   6.465   5.683   6.709 -0.5729  0.5877  0.1683
16492SOL    HW150917   6.557   5.676   6.685 -0.1336 -1.8489  2.1943
16492SOL    HW250918   6.422   5.612   6.662 -0.3662 -1.7624  3.2734
16493SOL     OW50919   3.752   1.411   2.734  0.2956 -0.2074 -0.3773
16493SOL    HW150920   3.658   1.393   2.744  0.3810  0.0544  1.1426
16493SOL    HW250921   3.755   1.506   2.717  0.4072  0.9350  4.4460
16494SOL     OW50922   2.283   6.800   8.692  0.1097  0.5939  0.8996
16494SOL    HW150923   2.357   6.799   8.754 -0.2004 -0.1676  1.2620
16494SOL    HW250924   2.324   6.802   8.606  0.5638 -0.0435  1.0926
16495SOL     OW50925   4.249   0.507   7.512 -0.1008 -0.0038  0.2003
16495SOL    HW150926   4.206   0.535   7.431  0.1507 -0.0179  0.0618
16495SOL    HW250927   4.249   0.585   7.567 -0.4919 -0.0590  0.2817
16496SOL     OW50928   6.463   2.873   6.961  0.2361 -0.0683 -0.0238
16496SOL    HW150929   6.538   2.932   6.962 -0.6456  1.0930  0.4729
16496SOL    HW250930   6.403   2.911   6.897  0.2701 -1.2666 -0.7936
16497SOL     OW50931   2.978   5.010   9.657 -0.5085 -0.3467  0.4411
16497SOL    HW150932   3.021   4.928   9.679  0.4341 -0.4561 -1.5887
16497SOL    HW250933   2.993   5.067   9.733 -1.8199 -2.2220  2.1986
16498SOL     OW50934   4.208   1.827  11.989  0.4947 -0.4186 -0.6484
16498SOL    HW150935   4.183   1.793  11.903  2.6580 -2.3446 -0.5889
16498SOL    HW250936   4.127   1.866  12.023 -0.7586 -0.7979 -2.9717
16499SOL     OW50937   0.987   5.233  10.612 -0.2558 -0.5666  0.0026
16499SOL    HW150938   1.009   5.184  10.532 -0.7703 -0.5978 -0.1194
16499SOL    HW250939   1.053   5.302  10.615 -1.9063  1.2128 -2.0216
16500SOL     OW50940   7.868   1.948   0.827 -0.7405  0.0104  0.2245
16500SOL    HW150941   7.870   1.872   0.886  0.4858 -0.3727 -0.2794
16500SOL    HW250942   7.806   1.923   0.759  1.2793 -1.5575 -1.1726
16501SOL     OW50943   1.417   2.793   9.786  0.5941 -0.2272  0.2445
16501SOL    HW150944   1.338   2.821   9.740  0.7297 -0.5490 -0.1876
16501SOL    HW250945   1.466   2.742   9.722  1.0412 -0.2350  0.5836
16502SOL     OW50946   3.852   5.843   1.470  0.6669 -0.2916  0.3782
16502SOL    HW150947   3.896   5.922   1.440  1.6698 -0.5568  1.0994
16502SOL    HW250948   3.919   5.794   1.518  0.6931 -2.6428 -1.8422
16503SOL     OW50949   0.033   5.206   2.076  0.1288 -0.4185  0.9943
16503SOL    HW150950  -0.034   5.138   2.085  0.7761 -1.2173  0.0959
16503SOL    HW250951   0.115   5.160   2.094  0.7245 -0.2623 -1.0445
16504SOL     OW50952   5.500   4.312   2.954 -0.3034 -0.3507  0.1194
16504SOL    HW150953   5.529   4.355   3.034 -1.2226 -1.2535  0.9683
16504SOL    HW250954   5.405   4.310   2.961 -0.4521  0.1979 -1.3522
16505SOL     OW50955   3.252   7.593   5.876 -0.0460 -0.0562 -0.1314
16505SOL    HW150956   3.281   7.576   5.787 -0.7565 -0.3013 -0.3256
16505SOL    HW250957   3.157   7.577   5.874 -0.0656 -0.1038  0.6705
16506SOL     OW50958   2.038   7.403   3.361 -0.0330 -0.2696  0.5338
16506SOL    HW150959   2.064   7.495   3.365  2.0146 -0.8059  0.9134
16506SOL    HW250960   1.950   7.401   3.399 -0.1030  1.5138  0.5550
16507SOL     OW50961   0.777   7.445   5.714  0.1938 -0.1093  0.3927
16507SOL    HW150962   0.775   7.538   5.737 -0.4877  0.1880 -0.7856
16507SOL    HW250963   0.843   7.439   5.645 -2.1321  0.1607 -2.0159
16508SOL     OW50964   5.844   2.624   4.784  0.3306  0.5724 -0.0410
16508SOL    HW150965   5.844   2.605   4.878  0.4803 -0.2025 -0.1873
16508SOL    HW250966   5.809   2.712   4.777  1.9456  1.3378  0.8797
16509SOL     OW50967   3.694   6.465   7.991  0.6079 -0.2884 -0.1826
16509SOL    HW150968   3.654   6.508   8.066  0.9327 -2.1403  1.1072
16509SOL    HW250969   3.689   6.531   7.921  0.8154  1.7073  1.5663
16510SOL     OW50970   5.264   1.674   5.811  0.3680  0.2647 -0.1455
16510SOL    HW150971   5.202   1.747   5.802  0.8780  0.7356  0.0827
16510SOL    HW250972   5.256   1.647   5.903  1.1976  0.9741  0.1484
16511SOL     OW50973   1.440   6.241   4.410 -0.0578 -0.1488 -0.2081
16511SOL    HW150974   1.403   6.156   4.385 -2.1604  0.7884 -0.5546
16511SOL    HW250975   1.422   6.247   4.504 -0.6524  0.2379 -0.3428
16512SOL     OW50976   0.549   3.827   1.525 -0.0225  0.1978  0.1793
16512SOL    HW150977   0.491   3.751   1.528 -1.6769  1.4648  1.4168
16512SOL    HW250978   0.637   3.789   1.529 -0.7992 -1.6205  2.6612
16513SOL     OW50979   6.850   2.762   1.534 -0.3910  0.3857 -0.3533
16513SOL    HW150980   6.862   2.856   1.543 -0.5908  0.7373 -2.9865
16513SOL    HW250981   6.762   2.745   1.567  0.5205  0.6579  2.4329
16514SOL     OW50982   5.888   5.474   0.397 -0.3750 -0.1226  0.3479
16514SOL    HW150983   5.929   5.405   0.344  1.4318  0.2687  1.1589
16514SOL    HW250984   5.896   5.553   0.343 -0.1573 -0.0651  0.4650
16515SOL     OW50985   4.568   2.837   1.894  0.6534  0.2397 -0.6082
16515SOL    HW150986   4.475   2.816   1.887  0.9353 -1.6767  0.6352
16515SOL    HW250987   4.604   2.817   1.808  0.3223 -1.4271 -0.3836
16516SOL     OW50988   4.864   3.854  11.238  0.3213 -0.5056 -1.0313
16516SOL    HW150989   4.960   3.862  11.238  0.4536 -1.1566  1.7550
16516SOL    HW250990   4.833   3.944  11.240  0.9718 -0.2843  0.1161
16517SOL     OW50991   0.226   4.238   5.455  0.4354 -0.5504 -0.2674
16517SOL    HW150992   0.152   4.254   5.397  0.6703 -0.2473 -0.4880
16517SOL    HW250993   0.191   4.252   5.543  0.0391 -1.1619 -0.3258
16518SOL     OW50994   7.291   2.997   3.377  0.3395  0.2320 -0.5358
16518SOL    HW150995   7.311   3.071   3.435 -0.4897 -1.2290  1.7365
16518SOL    HW250996   7.226   3.032   3.316 -0.5770  1.2343  0.9407
16519SOL     OW50997   3.838   0.607   8.791 -0.0884 -0.1782  0.2708
16519SOL    HW150998   3.912   0.615   8.852 -1.7773 -0.9649  2.5377
16519SOL    HW250999   3.823   0.513   8.785  0.6536 -0.2107 -2.2583
16520SOL     OW51000   6.278   6.040   8.703  0.4222 -0.2199 -0.1648
16520SOL    HW151001   6.343   6.096   8.661  0.1915 -1.5594 -2.4964
16520SOL    HW251002   6.267   5.966   8.643 -0.6879 -1.8129  1.8448
16521SOL     OW51003   0.902   6.555   4.360 -0.2358  0.7165  0.0367
16521SOL    HW151004   0.954   6.513   4.291 -2.8088 -1.4893 -0.7208
16521SOL    HW251005   0.915   6.500   4.437 -2.7946 -1.0532 -0.6778
16522SOL     OW51006   4.129   0.538   1.851  0.1770  0.0714  0.1156
16522SOL    HW151007   4.153   0.461   1.902  2.9217 -0.6085 -1.9423
16522SOL    HW251008   4.189   0.606   1.880 -1.0279  0.9443  0.6442
16523SOL     OW51009   1.070   4.767   0.106  0.0149  0.0699 -0.3049
16523SOL    HW151010   1.076   4.714   0.027  1.2366  0.7363 -0.6833
16523SOL    HW251011   1.123   4.719   0.171  1.0259  0.7214 -0.6143
16524SOL     OW51012   6.707   4.342   8.714  0.1768 -0.4838 -0.1302
16524SOL    HW151013   6.736   4.305   8.798 -2.2941 -2.0107  0.1495
16524SOL    HW251014   6.638   4.405   8.738 -1.2170 -1.6171 -1.0024
16525SOL     OW51015   7.188   2.791   8.267 -0.1786 -0.0613 -0.6768
16525SOL    HW151016   7.274   2.816   8.233  0.5537  0.5836  1.4759
16525SOL    HW251017   7.126   2.838   8.213  0.8054 -0.4665 -2.2180
16526SOL     OW51018   3.924   6.888   0.487 -0.1577  0.6243  0.1179
16526SOL    HW151019   3.895   6.975   0.512 -0.7468  0.6043 -0.4566
16526SOL    HW251020   4.016   6.898   0.466 -0.3233  1.2071 -0.3540
16527SOL     OW51021   6.022   1.747  11.187  0.2547 -0.7210 -0.0770
16527SOL    HW151022   5.949   1.800  11.220  0.7505  0.8715 -1.4408
16527SOL    HW251023   6.089   1.754  11.255 -0.0080 -0.3002  0.1441
16528SOL     OW51024   3.580   0.882   0.595  0.1988 -0.1165  0.8180
16528SOL    HW151025   3.525   0.805   0.609 -1.6341  1.2759  1.6772
16528SOL    HW251026   3.561   0.910   0.506  0.7662 -0.5425  0.5523
16529SOL     OW51027   5.637   0.751  11.560 -0.2352 -0.2400 -0.0071
16529SOL    HW151028   5.575   0.805  11.609  0.6926 -0.7632  1.8652
16529SOL    HW251029   5.721   0.797  11.570  0.0987 -0.7235 -0.5210
16530SOL     OW51030   6.971   0.349  11.298  0.1152  0.0628  0.0093
16530SOL    HW151031   7.044   0.287  11.292 -0.3396 -0.4617 -0.0819
16530SOL    HW251032   6.960   0.381  11.208 -1.4120 -1.7590 -0.5082
16531SOL     OW51033   0.863   5.964   5.816 -0.4565  0.5254  0.0200
16531SOL    HW151034   0.777   5.990   5.784 -0.5490  1.0077  0.6585
16531SOL    HW251035   0.905   6.045   5.843 -0.3565  0.1360  1.0712
16532SOL     OW51036   5.775   0.777  11.253 -0.1689  0.0416  0.4163
16532SOL    HW151037   5.698   0.748  11.303 -1.5668  1.7298 -0.6396
16532SOL    HW251038   5.768   0.732  11.169  0.1414  0.0461  0.3853
16533SOL     OW51039   4.090   1.120   7.102 -0.3663 -0.4514  0.9249
16533SOL    HW151040   4.097   1.153   7.012 -0.8058  0.4540  1.2139
16533SOL    HW251041   3.998   1.129   7.124 -0.5641 -2.1242  0.9500
16534SOL     OW51042   0.232   7.051   9.729 -0.1925  0.0071  0.5848
16534SOL    HW151043   0.291   6.997   9.782  0.8078 -1.0910 -1.5047
16534SOL    HW251044   0.178   7.097   9.792  2.4630  0.5705  2.6175
16535SOL     OW51045   4.459   6.367  11.700 -0.0184  0.1874 -0.4868
16535SOL    HW151046   4.437   6.372  11.793 -3.1799  1.7403 -1.1761
16535SOL    HW251047   4.449   6.456  11.668  0.4226 -0.4226 -2.4413
16536SOL     OW51048   6.040   1.225   5.467  0.6051 -0.5377  0.3775
16536SOL    HW151049   5.992   1.283   5.526 -1.6640 -0.4647 -1.3988
16536SOL    HW251050   6.114   1.277   5.437  0.2181  0.3864  0.9944
16537SOL     OW51051   6.575   7.142   6.164 -0.0681  0.0989 -0.2175
16537SOL    HW151052   6.619   7.190   6.234  1.6535 -1.1673 -0.3719
16537SOL    HW251053   6.584   7.198   6.087 -0.0830  0.5385  0.0991
16538SOL     OW51054   6.352   2.667   5.706  0.0256  0.0243 -0.2954
16538SOL    HW151055   6.309   2.742   5.748 -0.7871  0.0444 -1.1190
16538SOL    HW251056   6.282   2.603   5.694  0.5961 -0.6399 -0.1261
16539SOL     OW51057   7.121   3.897   3.028 -0.7327 -0.2976 -0.2335
16539SOL    HW151058   7.079   3.846   3.098 -0.9899  0.5030  0.2055
16539SOL    HW251059   7.050   3.945   2.986 -0.2522  1.4577  0.8411
16540SOL     OW51060   6.082   3.768   0.029  0.3970  0.7897 -0.1274
16540SOL    HW151061   6.152   3.804   0.083 -0.0832  1.4061  0.1026
16540SOL    HW251062   6.002   3.799   0.070 -0.0105  0.1708 -0.4404
16541SOL     OW51063   4.382   0.761   1.644 -0.4372 -0.2984 -0.2230
16541SOL    HW151064   4.414   0.675   1.671 -2.2352 -0.8061  0.4410
16541SOL    HW251065   4.297   0.770   1.688 -0.2635  1.8487 -0.2343
16542SOL     OW51066   6.084   2.016   3.777  0.1180 -0.3401  0.3175
16542SOL    HW151067   6.175   1.986   3.769  0.0997 -0.0087 -1.4039
16542SOL    HW251068   6.087   2.108   3.752 -0.6532 -0.2302  0.5956
16543SOL     OW51069   5.904   6.690  11.831  0.3282  0.3213 -0.2364
16543SOL    HW151070   5.894   6.694  11.736  0.8588 -0.5730 -0.3440
16543SOL    HW251071   5.818   6.714  11.866 -0.7151 -2.0087 -1.0083
16544SOL     OW51072   7.395   0.261   0.662  0.6639  0.3711 -0.0180
16544SOL    HW151073   7.332   0.258   0.734  1.1533  1.8998  0.5258
16544SOL    HW251074   7.389   0.351   0.629  0.8098 -0.1643 -1.5658
16545SOL     OW51075   3.215   1.637  10.376  0.5691 -0.1123 -0.2381
16545SOL    HW151076   3.140   1.697  10.380  0.1471 -0.5708 -1.0458
16545SOL    HW251077   3.239   1.622  10.467 -0.8629 -0.6203  0.0727
16546SOL     OW51078   5.514   5.792   9.472  0.3494 -0.2934  0.1874
16546SOL    HW151079   5.519   5.887   9.465  0.3978 -0.0788  2.5041
16546SOL    HW251080   5.549   5.760   9.388 -0.2020  1.7008 -0.8675
16547SOL     OW51081   5.995   0.810   4.398 -0.6504  0.3712  0.1590
16547SOL    HW151082   5.980   0.721   4.429  0.3521  0.5980  1.4282
16547SOL    HW251083   6.035   0.854   4.473  1.4983  1.1086 -1.3141
16548SOL     OW51084   0.406   6.031   6.413 -0.0553  0.0031 -0.2630
16548SOL    HW151085   0.358   5.949   6.401 -0.5141 -0.2815  2.7504
16548SOL    HW251086   0.416   6.040   6.508  3.9215  1.2194 -0.6046
16549SOL     OW51087   6.174   2.559   2.728 -0.3525  0.3490  0.1874
16549SOL    HW151088   6.224   2.487   2.690 -0.2138 -0.1262  1.2171
16549SOL    HW251089   6.102   2.515   2.774  0.0201  0.8163  1.2576
16550SOL     OW51090   1.893   3.598   4.647 -0.4618 -0.0349 -0.0158
16550SOL    HW151091   1.949   3.539   4.598  0.1336 -1.4231  2.1955
16550SOL    HW251092   1.953   3.656   4.694 -0.7111 -1.7699  2.6629
16551SOL     OW51093   4.703   6.651   1.615 -0.6290 -0.2845 -0.2208
16551SOL    HW151094   4.730   6.662   1.707  1.1122 -0.5045 -0.6741
16551SOL    HW251095   4.611   6.678   1.614 -0.8510 -0.8219  1.6934
16552SOL     OW51096   6.433   1.658   3.728 -0.7758  0.0272 -0.2980
16552SOL    HW151097   6.492   1.720   3.685 -2.7294  2.3152  0.1104
16552SOL    HW251098   6.411   1.595   3.659 -0.6643  1.2438 -1.5010
16553SOL     OW51099   0.200   2.553   4.356 -0.4016 -0.1276 -0.3248
16553SOL    HW151100   0.224   2.541   4.448  1.3091 -0.6168 -0.8090
16553SOL    HW251101   0.106   2.571   4.358 -0.2631  0.5700  1.5742
16554SOL     OW51102   3.896   6.376   1.983  0.2645  0.1697 -0.8398
16554SOL    HW151103   3.846   6.322   2.044  1.2325 -0.3601 -0.4920
16554SOL    HW251104   3.970   6.408   2.035  1.3013 -0.5803 -1.8131
16555SOL     OW51105   0.147   2.396  12.008  0.7159  0.2150 -0.1991
16555SOL    HW151106   0.135   2.476  12.060  1.6479 -0.3387  0.9282
16555SOL    HW251107   0.083   2.335  12.044 -0.0792  0.4810 -1.1416
16556SOL     OW51108   2.014   0.690   8.811  0.0919 -0.4606 -0.0661
16556SOL    HW151109   2.016   0.706   8.906  1.2752  0.7389 -0.2555
16556SOL    HW251110   1.950   0.753   8.778  1.1865  0.5870 -0.2669
16557SOL     OW51111   1.352   5.994   4.347  0.1179 -0.7262  0.1537
16557SOL    HW151112   1.264   5.979   4.382 -0.1098  1.1718  0.5061
16557SOL    HW251113   1.385   5.906   4.328 -1.6602 -1.5197  0.4543
16558SOL     OW51114   6.272   5.658   0.119  0.4457  0.2970  0.2012
16558SOL    HW151115   6.295   5.718   0.190  2.8681  1.4309 -1.4150
16558SOL    HW251116   6.346   5.661   0.059 -0.8099 -1.8140 -1.6408
16559SOL     OW51117   5.363   2.830   3.730 -0.0525  0.2135 -0.3520
16559SOL    HW151118   5.361   2.741   3.765 -0.3747  0.6601  0.7995
16559SOL    HW251119   5.285   2.835   3.674  0.2919 -0.4026 -0.9069
16560SOL     OW51120   1.447   7.753   7.937  0.5000  0.4485  0.3225
16560SOL    HW151121   1.452   7.658   7.946  1.2186  0.4726  0.1760
16560SOL    HW251122   1.390   7.766   7.861  0.3518  0.1370  0.3762
16561SOL     OW51123   7.520   1.273   0.763  0.3626 -0.4782  0.9148
16561SOL    HW151124   7.613   1.251   0.761  0.3623 -0.4573  0.5280
16561SOL    HW251125   7.505   1.319   0.680  0.3444  0.8898  1.6394
16562SOL     OW51126   3.740   1.708   2.774  0.2340 -0.2224 -0.3042
16562SOL    HW151127   3.702   1.778   2.720  1.2837  0.4193 -0.2464
16562SOL    HW251128   3.676   1.694   2.843 -0.0770  0.5554 -0.4229
16563SOL     OW51129   5.722   5.745   9.675  0.4114 -0.3372  0.4383
16563SOL    HW151130   5.639   5.778   9.708  0.4492  1.7169 -1.3013
16563SOL    HW251131   5.713   5.649   9.678 -2.0715 -0.1660  0.1798
16564SOL     OW51132   7.411   6.676   4.119 -0.3589 -0.2225  0.5079
16564SOL    HW151133   7.416   6.680   4.215  0.7788  1.2874  0.4231
16564SOL    HW251134   7.489   6.627   4.093 -0.5030 -0.3651  0.3415
16565SOL     OW51135   7.024   3.662   6.361 -0.1576  0.3198  0.6615
16565SOL    HW151136   7.003   3.569   6.360 -0.8595  0.3077  4.1585
16565SOL    HW251137   6.940   3.705   6.344  0.3878  0.4270 -2.2199
16566SOL     OW51138   2.481   5.448   6.391 -0.0955 -0.5522 -0.3579
16566SOL    HW151139   2.569   5.417   6.412 -0.0584  0.1155  0.5000
16566SOL    HW251140   2.454   5.499   6.467 -1.0420 -0.3505 -0.8114
16567SOL     OW51141   3.901   0.998   6.194 -0.0125  0.1589  0.5387
16567SOL    HW151142   3.952   1.071   6.159 -0.1171  0.5447  1.1715
16567SOL    HW251143   3.921   0.924   6.136  2.4092 -0.0866  1.5661
16568SOL     OW51144   5.027   4.168   8.438  0.1767 -0.0091  0.1324
16568SOL    HW151145   5.099   4.107   8.443  0.9239  0.6025 -2.0716
16568SOL    HW251146   5.067   4.254   8.451 -0.7857  0.1473  2.7215
16569SOL     OW51147   2.433   3.236   9.874 -0.1319  0.6283 -0.1449
16569SOL    HW151148   2.522   3.269   9.866  0.2145 -0.3762 -0.6723
16569SOL    HW251149   2.443   3.141   9.873 -1.1928  0.5037 -0.0190
16570SOL     OW51150   7.462   4.546   4.289  0.2227 -0.4142 -0.1798
16570SOL    HW151151   7.427   4.458   4.308 -0.6292  0.0455  0.4888
16570SOL    HW251152   7.541   4.530   4.238  1.8819 -1.7320  2.5561
16571SOL     OW51153   4.655   0.022   7.952 -0.1769 -0.4976  0.0332
16571SOL    HW151154   4.571   0.066   7.933  0.2499  0.5851  0.5538
16571SOL    HW251155   4.655  -0.055   7.895 -0.2088  1.0814 -2.2771
16572SOL     OW51156   2.263   0.737   7.449 -0.0011 -0.0440  0.4273
16572SOL    HW151157   2.168   0.747   7.458 -0.6350 -0.5470 -3.8177
16572SOL    HW251158   2.274   0.651   7.410  2.0747  0.5395 -0.3745
16573SOL     OW51159   7.759   4.797   4.352  0.1066  0.0547 -0.3542
16573SOL    HW151160   7.773   4.809   4.446  0.0106  0.3315 -0.3767
16573SOL    HW251161   7.664   4.787   4.343  0.1746 -0.6586 -0.3416
16574SOL     OW51162   0.334   6.872   7.888 -0.2247 -0.3105 -0.1629
16574SOL    HW151163   0.429   6.875   7.897 -0.3734 -0.7508  2.2081
16574SOL    HW251164   0.307   6.963   7.882  0.2625 -0.1007  0.6698
16575SOL     OW51165   3.895   2.474   7.063 -0.0258 -0.0114  0.2831
16575SOL    HW151166   3.838   2.462   7.139 -0.0227 -0.4626  0.2168
16575SOL    HW251167   3.887   2.393   7.014  0.1582  0.1836 -0.0781
16576SOL     OW51168   6.567   3.459   3.792 -0.0555 -0.2260 -0.1589
16576SOL    HW151169   6.618   3.539   3.804  1.0755 -1.0159  0.4416
16576SOL    HW251170   6.560   3.421   3.879  0.6499 -1.5017 -0.6370
16577SOL     OW51171   2.583   0.136  10.453  0.0997  0.6022  0.0332
16577SOL    HW151172   2.607   0.048  10.481 -2.6621 -0.5408 -0.8516
16577SOL    HW251173   2.666   0.182  10.442  1.5751 -1.5258  1.5845
16578SOL     OW51174   5.556   5.420   3.760 -0.0289 -0.1800 -0.4039
16578SOL    HW151175   5.576   5.346   3.817  1.5326  0.5587  0.0660
16578SOL    HW251176   5.461   5.422   3.755 -0.2718  0.0525  2.6130
16579SOL     OW51177   7.293   7.033   6.090 -0.5571 -0.6403 -0.1907
16579SOL    HW151178   7.378   7.075   6.103 -0.3236 -1.6376  1.8875
16579SOL    HW251179   7.281   7.033   5.995  1.5011  0.0183 -0.5037
16580SOL     OW51180   5.001   1.758  11.443 -0.3478  0.0355 -0.3036
16580SOL    HW151181   5.045   1.817  11.382  0.4959  0.1107  0.3629
16580SOL    HW251182   4.936   1.813  11.486 -0.4792  0.1458 -0.6358
16581SOL     OW51183   2.298   6.324   4.186  0.0907  0.0583  0.6756
16581SOL    HW151184   2.236   6.287   4.248  1.4864 -0.1690  2.0034
16581SOL    HW251185   2.383   6.291   4.215  1.0068  1.5574 -0.1825
16582SOL     OW51186   0.688   1.157   0.713  0.4029  0.0048  0.2974
16582SOL    HW151187   0.783   1.148   0.707  0.3629  0.0197 -0.5105
16582SOL    HW251188   0.659   1.167   0.622 -0.3076  0.6415  0.5807
16583SOL     OW51189   6.572   1.016   4.500  1.2864  0.5503 -0.1199
16583SOL    HW151190   6.545   1.078   4.432  0.5076  0.3946  0.0442
16583SOL    HW251191   6.514   0.941   4.489  0.2602  1.0423  1.5181
16584SOL     OW51192   2.463   2.963  10.020 -0.9629  0.5163  0.1613
16584SOL    HW151193   2.371   2.938  10.011 -0.1911 -2.2150 -1.0696
16584SOL    HW251194   2.493   2.916  10.098 -0.4439  0.9212  0.2120
16585SOL     OW51195   3.721   3.030   3.087  0.2462  0.1499 -0.1278
16585SOL    HW151196   3.648   3.078   3.126  0.0480 -1.5754  1.7925
16585SOL    HW251197   3.687   2.997   3.004 -0.2202  1.6588 -0.5696
16586SOL     OW51198   5.347   6.976   8.817  0.2047  0.3569 -0.1371
16586SOL    HW151199   5.318   6.886   8.821  2.2647 -0.4174 -1.0582
16586SOL    HW251200   5.303   7.013   8.741 -0.8870  0.2419  0.4287
16587SOL     OW51201   6.072   6.491   1.029  0.2746 -0.6892  0.4414
16587SOL    HW151202   6.139   6.492   1.097 -1.7228 -0.1228  2.5080
16587SOL    HW251203   5.995   6.453   1.071 -1.2121  0.2144 -1.3141
16588SOL     OW51204   0.732   2.037   3.402 -0.3071  0.1238 -0.0557
16588SOL    HW151205   0.728   2.086   3.320 -0.4348 -0.9369 -0.6986
16588SOL    HW251206   0.758   2.103   3.467 -0.4934  1.0467 -0.8788
16589SOL     OW51207   0.532   4.920   5.575  0.5068  0.0884  0.3342
16589SOL    HW151208   0.623   4.929   5.604  0.3145  1.0103  0.6659
16589SOL    HW251209   0.534   4.844   5.517  1.5217  0.1952  0.1995
16590SOL     OW51210   3.363   2.529   8.788 -0.4046  0.0672  0.9447
16590SOL    HW151211   3.415   2.570   8.857  0.2210 -0.5271  0.8417
16590SOL    HW251212   3.299   2.476   8.834  0.8302 -1.3540  1.1112
16591SOL     OW51213   6.205   5.460  10.361  0.3938 -0.7092  0.2418
16591SOL    HW151214   6.154   5.472  10.440  0.3405  0.7751  0.0135
16591SOL    HW251215   6.140   5.457  10.290  0.5271 -0.2945  0.0962
16592SOL     OW51216   2.339   0.078   8.890 -0.1596  0.0038  0.0880
16592SOL    HW151217   2.356   0.120   8.805 -0.6182  0.8810  0.4157
16592SOL    HW251218   2.356   0.146   8.954 -1.7543 -0.0372  0.5888
16593SOL     OW51219   1.724   5.733   8.050  0.2953 -0.0891 -0.3111
16593SOL    HW151220   1.681   5.730   8.136 -1.0054  0.8508 -0.8956
16593SOL    HW251221   1.817   5.729   8.070 -0.0050 -0.7158  1.0984
16594SOL     OW51222   3.012   7.960   3.826  0.4237 -0.1066  0.0816
16594SOL    HW151223   2.959   7.950   3.905 -0.1028 -0.5172 -0.3197
16594SOL    HW251224   2.949   7.968   3.755  0.8954 -0.2401 -0.3617
16595SOL     OW51225   5.442   0.113   2.380  0.2576 -0.2668  0.1574
16595SOL    HW151226   5.366   0.102   2.323 -0.1468  0.3829  0.5500
16595SOL    HW251227   5.471   0.024   2.400 -0.4714 -0.5260  0.0894
16596SOL     OW51228   3.086   0.215   1.397  0.2124  0.4688 -0.0522
16596SOL    HW151229   3.041   0.252   1.473 -0.7440 -0.5911 -0.0732
16596SOL    HW251230   3.176   0.199   1.426 -0.1577  0.0358  0.8716
16597SOL     OW51231   2.721   2.969   6.449 -0.1321  0.6333 -0.3467
16597SOL    HW151232   2.670   3.047   6.430  0.6219  1.0131 -0.8356
16597SOL    HW251233   2.771   2.952   6.370  0.2034  0.0265 -0.0199
16598SOL     OW51234   3.256   2.425  10.368 -0.8456  0.0715 -0.0952
16598SOL    HW151235   3.260   2.330  10.372 -0.5654  0.0906  0.1455
16598SOL    HW251236   3.175   2.448  10.414 -1.0379 -0.0623 -0.3672
16599SOL     OW51237   3.622   2.370  10.434  0.2652  0.0141  0.2210
16599SOL    HW151238   3.714   2.372  10.457  0.7291 -0.3599 -1.4860
16599SOL    HW251239   3.615   2.302  10.367 -1.2966 -0.1284  0.4779
16600SOL     OW51240   7.612   5.725   4.060 -0.1849 -0.1416  0.2758
16600SOL    HW151241   7.626   5.814   4.030 -1.0051  0.1318  0.6949
16600SOL    HW251242   7.518   5.710   4.053 -0.3876 -0.1915  2.2853
16601SOL     OW51243   3.652   1.768   3.643  0.0685 -0.0786 -0.7666
16601SOL    HW151244   3.634   1.842   3.584 -2.7689  0.7420  0.9220
16601SOL    HW251245   3.701   1.807   3.715 -0.7039  0.0080 -0.2776
16602SOL     OW51246   6.198   6.009  11.248  0.1362  0.0476  0.0047
16602SOL    HW151247   6.156   6.046  11.325  0.6979 -0.7709  0.7182
16602SOL    HW251248   6.265   6.074  11.223  0.2934  0.0834  0.5104
16603SOL     OW51249   2.072   6.064   9.666 -0.1738  0.2551  0.2274
16603SOL    HW151250   2.089   5.983   9.618 -0.9442  0.2854 -0.1210
16603SOL    HW251251   2.066   6.037   9.758  0.2319  0.0235  0.1866
16604SOL     OW51252   4.984   6.651   3.759  0.0687 -0.1522 -0.2641
16604SOL    HW151253   4.957   6.732   3.802 -0.4317 -0.5743  0.2302
16604SOL    HW251254   5.011   6.594   3.831  0.6347 -0.3507 -0.6248
16605SOL     OW51255   4.955   6.500   5.311 -0.1144 -0.6030 -0.3303
16605SOL    HW151256   4.885   6.468   5.367  0.2910 -0.4410  0.2806
16605SOL    HW251257   5.020   6.537   5.372  0.7656 -1.2700 -0.8391
16606SOL     OW51258   3.134   1.823   2.603  0.1955 -0.0733  0.4318
16606SOL    HW151259   3.218   1.806   2.648 -0.4519 -0.1883  1.6527
16606SOL    HW251260   3.072   1.836   2.674 -0.5471  1.5120 -0.4603
16607SOL     OW51261   5.287   7.177  10.788 -0.5645  0.5266  0.0242
16607SOL    HW151262   5.310   7.140  10.874 -2.2387 -0.8159 -0.0586
16607SOL    HW251263   5.256   7.102  10.737  0.5188  1.2811 -1.8324
16608SOL     OW51264   2.832   5.184   8.916 -0.1498 -0.2018 -0.4610
16608SOL    HW151265   2.828   5.206   9.009 -1.0057 -1.2498 -0.2230
16608SOL    HW251266   2.911   5.226   8.885 -0.5651  1.3255  0.4221
16609SOL     OW51267   6.612   3.905   4.301  0.5300 -0.0370  0.4600
16609SOL    HW151268   6.691   3.852   4.309 -0.1383 -0.9275  1.3037
16609SOL    HW251269   6.565   3.868   4.227 -0.0676 -0.8167  1.2165
16610SOL     OW51270   2.613   0.988   2.305 -0.1340  0.2000  0.1737
16610SOL    HW151271   2.690   0.932   2.312 -0.5420 -0.3417  0.3900
16610SOL    HW251272   2.539   0.927   2.308 -0.5344  0.4721 -2.3981
16611SOL     OW51273   7.107   1.562  11.795 -0.0802 -0.8246  0.0252
16611SOL    HW151274   7.184   1.618  11.798 -0.4954 -0.0068 -2.2691
16611SOL    HW251275   7.140   1.478  11.761 -0.1186 -0.5847 -0.6226
16612SOL     OW51276   2.023   7.639   5.009  0.3557  0.7239 -0.0261
16612SOL    HW151277   2.072   7.721   5.006  0.3639  0.6968 -0.7878
16612SOL    HW251278   1.954   7.655   5.074  0.4647  1.2701 -0.0373
16613SOL     OW51279   6.845   2.327  11.925  0.4024  0.1963  0.1210
16613SOL    HW151280   6.807   2.359  12.007  0.1000 -2.5942  1.1910
16613SOL    HW251281   6.770   2.292  11.876  0.8596 -0.0978 -0.3769
16614SOL     OW51282   6.344   3.189  10.886  0.2115 -0.6498 -0.1283
16614SOL    HW151283   6.338   3.274  10.844 -0.6414 -0.1314  0.9928
16614SOL    HW251284   6.418   3.146  10.844  0.3718  0.4715 -1.0105
16615SOL     OW51285   6.791   2.188   5.183  0.1377 -0.2147  0.1087
16615SOL    HW151286   6.772   2.257   5.246  1.8286 -0.3500  0.8169
16615SOL    HW251287   6.743   2.213   5.104  1.4014  2.2741  0.0388
16616SOL     OW51288   5.309   0.850   9.090  0.1653 -0.3268  0.0844
16616SOL    HW151289   5.270   0.846   9.177 -1.4937 -4.0041 -0.6574
16616SOL    HW251290   5.258   0.917   9.044 -0.6893 -0.2151  1.1636
16617SOL     OW51291   2.665   2.097  10.693 -0.1865 -0.1363 -0.5196
16617SOL    HW151292   2.717   2.162  10.646  0.6052 -1.9102 -2.2479
16617SOL    HW251293   2.575   2.110  10.661 -0.1336  0.4023 -0.4642
16618SOL     OW51294   0.343   0.299   1.325  0.3306 -0.1940  0.3816
16618SOL    HW151295   0.402   0.373   1.341 -0.8666  0.5921  1.3272
16618SOL    HW251296   0.309   0.276   1.412 -0.7765 -0.6173 -0.1413
16619SOL     OW51297   5.279   4.249   4.836  0.1319  0.3849  0.2539
16619SOL    HW151298   5.258   4.330   4.883 -1.4298  1.1137 -1.5510
16619SOL    HW251299   5.227   4.254   4.756  1.4986 -1.5028 -0.8386
16620SOL     OW51300   1.195   3.051   2.225 -0.3300 -0.2877  0.1675
16620SOL    HW151301   1.183   2.969   2.178  1.0463  0.7770 -2.1775
16620SOL    HW251302   1.189   3.119   2.158  0.7451  1.3941  1.6795
16621SOL     OW51303   1.666   2.323  12.297  0.4912  0.3686  0.1648
16621SOL    HW151304   1.722   2.282  12.363  2.7292 -0.1552 -1.9165
16621SOL    HW251305   1.599   2.257  12.277  0.5956  0.0258  0.9218
16622SOL     OW51306   5.759   2.304   0.137 -0.1137  0.1948 -0.6860
16622SOL    HW151307   5.750   2.396   0.164  1.8507  0.0087  0.8271
16622SOL    HW251308   5.780   2.258   0.218  2.2624 -1.0324 -1.8983
16623SOL     OW51309   5.580   2.373   6.169 -0.0848 -0.0166 -0.1438
16623SOL    HW151310   5.586   2.397   6.262 -1.1038  1.3766 -0.4164
16623SOL    HW251311   5.487   2.370   6.150  0.0733  2.9102 -1.8738
16624SOL     OW51312   0.082   6.111   3.935  0.1966 -0.0112 -0.0596
16624SOL    HW151313   0.082   6.128   4.029 -1.7826  0.6773 -0.1320
16624SOL    HW251314   0.071   6.197   3.895 -0.5197 -0.4564 -0.8531
16625SOL     OW51315   5.018   5.886   1.519  0.7020  0.5408 -0.0491
16625SOL    HW151316   4.929   5.855   1.531  0.6528  0.6040 -0.2421
16625SOL    HW251317   5.044   5.852   1.433  0.3705  1.6652 -0.6175
16626SOL     OW51318   2.644   0.411  11.947  0.3201  0.1301  0.2481
16626SOL    HW151319   2.630   0.502  11.919  2.6542  0.7920  0.9546
16626SOL    HW251320   2.707   0.418  12.019  0.8456 -2.0741  0.0803
16627SOL     OW51321   2.257   2.407   2.637  0.1520  0.1121 -0.6475
16627SOL    HW151322   2.300   2.440   2.716  1.0678 -2.7327  0.1795
16627SOL    HW251323   2.167   2.438   2.644  0.9994  2.7267 -0.2747
16628SOL     OW51324   1.848   5.308   6.787  0.6366  0.0358  0.1696
16628SOL    HW151325   1.857   5.347   6.874  0.4543  1.0090 -0.2314
16628SOL    HW251326   1.882   5.376   6.727  2.9045 -1.4644 -0.3916
16629SOL     OW51327   7.659   7.139   0.272  0.5952 -0.2460 -0.0084
16629SOL    HW151328   7.622   7.195   0.341 -0.8932 -0.4069 -0.6399
16629SOL    HW251329   7.600   7.150   0.197  0.3042 -2.5306 -0.2082
16630SOL     OW51330   4.707   7.631   2.127  0.7594  0.3971  0.2942
16630SOL    HW151331   4.614   7.652   2.139  0.2410 -1.8490  0.6890
16630SOL    HW251332   4.712   7.594   2.039  1.1542 -0.1600  0.5485
16631SOL     OW51333   3.747   1.220   7.480  0.0054  0.2560 -0.2289
16631SOL    HW151334   3.743   1.159   7.555 -1.4555  0.5208 -0.0516
16631SOL    HW251335   3.734   1.165   7.403  1.6888 -0.0417 -0.3201
16632SOL     OW51336   6.227   7.937   6.406  0.3999 -0.2327 -0.2593
16632SOL    HW151337   6.175   7.928   6.487  1.0729  0.0375  0.2085
16632SOL    HW251338   6.162   7.934   6.336 -0.2229 -0.2135  0.3036
16633SOL     OW51339   7.935   6.931   0.898 -0.1480  0.8135  0.3448
16633SOL    HW151340   7.955   6.844   0.862 -1.1910  0.2385  1.1087
16633SOL    HW251341   7.971   6.992   0.833 -2.3515 -0.1609 -1.9791
16634SOL     OW51342   4.411   7.721  10.896  0.1437  0.5988  0.1919
16634SOL    HW151343   4.481   7.785  10.880  0.5006  0.8099  2.2926
16634SOL    HW251344   4.330   7.772  10.891  0.1229  0.4425 -1.8027
16635SOL     OW51345   4.698   6.030   4.798 -0.3683 -0.3950 -0.0841
16635SOL    HW151346   4.687   6.031   4.702 -1.2061 -0.2860  0.0042
16635SOL    HW251347   4.724   5.941   4.818  0.0787 -0.3490 -0.4441
16636SOL     OW51348   3.893   3.586   2.493  0.0679 -0.4205 -0.8264
16636SOL    HW151349   3.871   3.668   2.538 -0.5370 -1.3249  0.5848
16636SOL    HW251350   3.826   3.578   2.425 -0.5874 -0.3027 -0.2187
16637SOL     OW51351   6.583   5.746   6.290 -0.1448 -0.3438  0.4460
16637SOL    HW151352   6.641   5.721   6.218 -0.2127 -1.4515  0.7544
16637SOL    HW251353   6.508   5.686   6.282 -0.1031 -0.5531  1.4944
16638SOL     OW51354   0.858   2.667   6.543  0.1270  0.0601  0.3753
16638SOL    HW151355   0.828   2.577   6.534  1.5231 -0.5258  1.3011
16638SOL    HW251356   0.785   2.720   6.511 -1.2459 -1.3374  1.0783
16639SOL     OW51357   7.703   6.586   9.201  0.6376  0.1772  0.0297
16639SOL    HW151358   7.684   6.596   9.294  0.8659  2.8740 -0.1552
16639SOL    HW251359   7.618   6.562   9.162  0.0208  1.2827  0.6491
16640SOL     OW51360   2.992   1.219   8.555 -0.9767  0.0642 -0.4119
16640SOL    HW151361   3.010   1.184   8.468 -1.2231  1.4456 -1.0550
16640SOL    HW251362   2.917   1.278   8.542  0.4344  2.1051  0.2406
16641SOL     OW51363   4.757   0.301   1.323 -0.2742 -0.2649  0.0853
16641SOL    HW151364   4.791   0.298   1.233 -0.9727 -1.2533 -0.1559
16641SOL    HW251365   4.835   0.315   1.377  0.3017 -0.7701 -0.5907
16642SOL     OW51366   1.760   6.822  12.276 -0.0678  0.0286  0.2116
16642SOL    HW151367   1.699   6.868  12.334 -0.4690  1.4413 -1.2710
16642SOL    HW251368   1.806   6.762  12.334 -0.9731  0.8409  1.8626
16643SOL     OW51369   3.559   7.747   9.444 -0.7395  0.6209 -0.3344
16643SOL    HW151370   3.576   7.803   9.519 -2.9887 -0.6866  1.2703
16643SOL    HW251371   3.467   7.763   9.422 -2.0188 -3.3020  1.1590
16644SOL     OW51372   2.503   7.606   2.412  0.0558 -0.4011 -0.4490
16644SOL    HW151373   2.471   7.516   2.405 -1.0125 -0.0725  0.0092
16644SOL    HW251374   2.445   7.647   2.477 -0.0573  0.8664 -1.3130
16645SOL     OW51375   6.857   2.458  11.263 -0.2397 -0.0331  0.2024
16645SOL    HW151376   6.900   2.537  11.230 -0.6908  0.0443 -0.2064
16645SOL    HW251377   6.907   2.435  11.342  0.2130  0.3620  0.0378
16646SOL     OW51378   5.995   4.296  12.284  0.0309  0.3918  0.3491
16646SOL    HW151379   5.995   4.203  12.303  0.9613  0.1569 -0.7212
16646SOL    HW251380   6.077   4.312  12.236 -1.1345  1.3113 -1.4928
16647SOL     OW51381   1.961   5.725   8.515  0.0733 -0.3102 -0.1464
16647SOL    HW151382   2.044   5.677   8.524 -0.1268 -0.3545  1.7728
16647SOL    HW251383   1.981   5.814   8.542 -0.8018 -0.6800  1.9401
16648SOL     OW51384   1.737   1.447   2.751  0.9362 -0.0101 -0.5843
16648SOL    HW151385   1.704   1.367   2.711  0.0058  0.4450 -0.7582
16648SOL    HW251386   1.755   1.505   2.676  1.2806  0.0612 -0.4456
16649SOL     OW51387   7.410   6.672   0.176 -0.4963  0.0028 -0.5250
16649SOL    HW151388   7.426   6.655   0.268 -2.1574  1.1052  0.0233
16649SOL    HW251389   7.440   6.593   0.131 -0.3718 -0.8736  1.0213
16650SOL     OW51390   5.891   6.279   4.539 -0.9652 -0.1944  0.0428
16650SOL    HW151391   5.897   6.186   4.561 -0.0450 -0.3937 -0.9945
16650SOL    HW251392   5.812   6.309   4.585 -1.1561 -1.4300  0.5590
16651SOL     OW51393   0.757   6.851   0.194 -0.0538  0.1763  0.2285
16651SOL    HW151394   0.755   6.769   0.243  1.2884 -0.2295 -0.3588
16651SOL    HW251395   0.849   6.875   0.192 -0.4157  1.6811  0.3300
16652SOL     OW51396   5.838   7.701   4.135  0.6897  0.5621 -0.0028
16652SOL    HW151397   5.833   7.607   4.157 -1.1215  0.5742 -0.1762
16652SOL    HW251398   5.796   7.707   4.049  1.0897  1.4910 -0.1392
16653SOL     OW51399   2.897   2.997   8.876 -0.1955 -0.4595 -0.1907
16653SOL    HW151400   2.952   3.065   8.838  0.7228  0.2855  2.2784
16653SOL    HW251401   2.811   3.011   8.835  0.8297 -0.1674 -2.3896
16654SOL     OW51402   2.510   2.377   7.375  0.1315  0.3678 -0.0681
16654SOL    HW151403   2.541   2.311   7.312 -0.7399  1.0111 -1.2111
16654SOL    HW251404   2.416   2.364   7.379 -0.0236  1.3948 -0.1371
16655SOL     OW51405   5.281   5.392  10.017  0.1917 -0.7940 -0.0844
16655SOL    HW151406   5.191   5.413   9.992  0.9102  0.8372 -1.5575
16655SOL    HW251407   5.278   5.382  10.112 -0.9380  3.1104  0.4724
16656SOL     OW51408   2.697   1.569   2.032  0.1376 -0.0267 -0.1928
16656SOL    HW151409   2.664   1.653   2.065 -0.1393 -0.1429 -0.1700
16656SOL    HW251410   2.622   1.530   1.988 -0.0715 -0.7940  0.8303
16657SOL     OW51411   0.697   5.786  11.016 -0.4408 -0.1288  0.0143
16657SOL    HW151412   0.665   5.697  11.032  1.3629 -0.4303  2.3101
16657SOL    HW251413   0.775   5.774  10.963 -0.5465  0.1571 -0.2107
16658SOL     OW51414   5.954   6.394  10.324 -0.0788 -0.2942 -0.1574
16658SOL    HW151415   5.880   6.346  10.362  1.4098 -1.9551  0.8253
16658SOL    HW251416   5.917   6.441  10.250 -2.5224  0.6154  1.5105
16659SOL     OW51417   2.097   4.592   0.640 -0.3684 -0.0340  0.1221
16659SOL    HW151418   2.066   4.551   0.560 -2.3296  0.5289  0.5347
16659SOL    HW251419   2.175   4.543   0.664 -1.3865 -2.1129 -0.5675
16660SOL     OW51420   5.240   5.221   2.537  0.1946 -0.6268  0.4932
16660SOL    HW151421   5.247   5.290   2.472 -1.2939 -0.3997  0.5289
16660SOL    HW251422   5.177   5.256   2.601  1.5542 -0.8650  2.0235
16661SOL     OW51423   4.271   1.271   7.247 -0.0633 -0.4713 -0.2049
16661SOL    HW151424   4.228   1.207   7.191  1.8131 -1.4779 -0.5832
16661SOL    HW251425   4.294   1.343   7.188  2.1138 -1.6294 -0.8771
16662SOL     OW51426   1.552   1.848  10.255 -0.1759 -0.2693 -0.2441
16662SOL    HW151427   1.564   1.810  10.342 -0.1604 -0.4328 -0.3173
16662SOL    HW251428   1.466   1.816  10.226 -0.8043  0.8898  0.2759
16663SOL     OW51429   5.274   4.530   6.603 -0.2182  0.2293  0.8743
16663SOL    HW151430   5.369   4.540   6.606 -0.1228 -0.0522 -0.6276
16663SOL    HW251431   5.241   4.591   6.669  1.0736 -1.1637  2.9238
16664SOL     OW51432   2.367   7.385   3.003 -0.1556  0.6344  0.5171
16664SOL    HW151433   2.296   7.434   3.043 -1.6329 -1.7287  0.9800
16664SOL    HW251434   2.446   7.419   3.045 -1.3375  0.7863  2.7297
16665SOL     OW51435   3.208   2.859   7.778  0.2342  0.2060 -0.0119
16665SOL    HW151436   3.129   2.805   7.786  0.8461 -0.7047 -0.0384
16665SOL    HW251437   3.213   2.906   7.861  0.8936 -1.4439  0.9274
16666SOL     OW51438   1.148   4.337   8.809 -0.3566  0.5513  0.4508
16666SOL    HW151439   1.188   4.308   8.727 -2.3135  0.0995 -0.4140
16666SOL    HW251440   1.182   4.277   8.875 -1.4250 -1.4200 -0.6835
16667SOL     OW51441   2.597   1.015   9.995 -0.0185  0.3493  0.0667
16667SOL    HW151442   2.609   0.947  10.061 -0.0637 -1.6791 -1.9279
16667SOL    HW251443   2.502   1.032   9.995  0.1519  1.5805  1.5932
16668SOL     OW51444   5.993   4.196   9.102  0.0924  0.3356 -0.0621
16668SOL    HW151445   5.990   4.170   9.010  1.6658  4.1292 -1.3614
16668SOL    HW251446   5.902   4.216   9.125 -0.0892  1.1338 -1.4076
16669SOL     OW51447   7.579   0.087   6.953 -0.2593  0.1415 -0.5050
16669SOL    HW151448   7.539   0.048   7.031 -0.8259 -2.3766 -1.9235
16669SOL    HW251449   7.505   0.113   6.898  0.0920 -0.1366 -1.1212
16670SOL     OW51450   3.852   3.154   8.026 -0.2990  1.0385  0.1890
16670SOL    HW151451   3.795   3.209   8.080 -1.1047 -0.5381  1.0028
16670SOL    HW251452   3.792   3.097   7.979  0.5686 -0.2589  0.6133
16671SOL     OW51453   0.851   5.072  12.096 -0.0054 -0.3454 -0.7176
16671SOL    HW151454   0.857   4.982  12.126  2.4036 -0.9434 -2.7201
16671SOL    HW251455   0.844   5.123  12.177 -0.6083 -2.2382  0.4926
16672SOL     OW51456   7.328   4.818   2.513 -0.6212  0.2137  0.0640
16672SOL    HW151457   7.409   4.801   2.560 -0.1757  1.4835 -0.1927
16672SOL    HW251458   7.340   4.775   2.428  0.1786  1.1344 -0.3106
16673SOL     OW51459   3.366   2.254   5.110  0.0498 -0.4653  0.0528
16673SOL    HW151460   3.336   2.183   5.053 -0.7234  0.4322 -0.6818
16673SOL    HW251461   3.436   2.296   5.059 -1.0015  0.6666 -0.4807
16674SOL     OW51462   1.312   6.413   0.688  0.0336  0.3823 -0.5068
16674SOL    HW151463   1.245   6.482   0.688 -1.3802 -0.9307  0.7009
16674SOL    HW251464   1.317   6.385   0.779  1.0527 -0.6835 -0.8750
16675SOL     OW51465   7.489   7.042   9.052  0.3506  0.6360  0.0276
16675SOL    HW151466   7.439   7.116   9.088 -1.6979 -0.8254  0.4146
16675SOL    HW251467   7.475   7.047   8.958 -2.5731 -0.9638  0.2418
16676SOL     OW51468   1.403   0.735  12.230  0.2621  0.5079  0.1174
16676SOL    HW151469   1.408   0.816  12.180 -0.5732  0.3446 -0.2563
16676SOL    HW251470   1.429   0.760  12.319 -1.2401  1.4900  0.3164
16677SOL     OW51471   6.865   4.087   1.506  0.0654 -0.1279 -0.3215
16677SOL    HW151472   6.773   4.063   1.495 -0.0700  0.9348 -1.7753
16677SOL    HW251473   6.873   4.110   1.598 -1.2486  0.2239 -0.2806
16678SOL     OW51474   3.618   0.764   5.734 -0.2560  0.3049  0.6467
16678SOL    HW151475   3.632   0.699   5.666 -0.1203  0.2169  0.7572
16678SOL    HW251476   3.674   0.838   5.708  0.2689  0.0292  0.9858
16679SOL     OW51477   4.014   2.086   4.864  0.1754  0.2498  0.1650
16679SOL    HW151478   4.059   2.001   4.857 -0.3160 -0.0326  0.3381
16679SOL    HW251479   3.922   2.065   4.845  0.0914  0.7904 -0.0387
16680SOL     OW51480   6.396   0.228   4.694  0.3209  0.2686  0.3496
16680SOL    HW151481   6.472   0.241   4.638 -1.4064  2.0074 -1.7824
16680SOL    HW251482   6.386   0.310   4.741 -0.9572  0.5880 -0.4201
16681SOL     OW51483   5.780   6.204   0.675  0.2888 -0.0022  0.4545
16681SOL    HW151484   5.746   6.289   0.704  1.4241  0.6795 -0.1442
16681SOL    HW251485   5.704   6.158   0.640 -0.0064  1.6024 -1.1693
16682SOL     OW51486   7.448   1.185   7.297  0.1060  0.3687  0.2396
16682SOL    HW151487   7.517   1.163   7.359  0.3155  0.3679  0.0087
16682SOL    HW251488   7.455   1.280   7.287  0.0337  0.3764  0.2629
16683SOL     OW51489   0.785   0.110  10.968 -0.2848 -0.5724  0.4211
16683SOL    HW151490   0.813   0.199  10.987 -0.9595 -0.3861  0.5649
16683SOL    HW251491   0.842   0.055  11.023 -0.4836 -0.1798  1.0365
16684SOL     OW51492   6.576   2.148  12.050 -0.0363  0.0739 -0.2817
16684SOL    HW151493   6.521   2.216  12.089  1.4995  0.1905  1.8569
16684SOL    HW251494   6.588   2.176  11.959  1.1253  3.1153  0.6851
16685SOL     OW51495   2.038   5.441   4.422  0.4804  0.5920  0.6526
16685SOL    HW151496   2.080   5.381   4.360  0.4165 -0.5260  1.6564
16685SOL    HW251497   1.946   5.417   4.420  0.4021  0.8809  0.8152
16686SOL     OW51498   7.031   4.041   0.013  0.2539 -0.1043 -0.9660
16686SOL    HW151499   6.987   3.966  -0.025  0.3743  0.7934 -2.9948
16686SOL    HW251500   6.963   4.088   0.061 -0.0072 -1.0044 -0.4442
16687SOL     OW51501   5.747   4.178   9.374 -0.7257  0.7926 -0.1092
16687SOL    HW151502   5.835   4.218   9.374 -0.2833  0.1573 -3.7670
16687SOL    HW251503   5.688   4.252   9.388  0.3139  1.6411  0.0080
16688SOL     OW51504   2.127   7.936  11.897 -0.0616 -0.3141 -0.1870
16688SOL    HW151505   2.136   8.008  11.960  1.6403 -0.6750  0.0268
16688SOL    HW251506   2.034   7.917  11.895 -0.4342  1.3216  0.4114
16689SOL     OW51507   0.751   7.263   1.827  0.1302  0.5222 -0.1244
16689SOL    HW151508   0.810   7.191   1.806 -0.0740  1.2242 -3.6992
16689SOL    HW251509   0.664   7.227   1.813 -0.2374  0.4440  1.9503
16690SOL     OW51510   7.758   5.120  11.604  0.1434  0.0092 -0.2569
16690SOL    HW151511   7.692   5.164  11.550 -1.3453  1.2930  2.3679
16690SOL    HW251512   7.760   5.030  11.572 -3.2488 -0.1999 -0.2778
16691SOL     OW51513   6.419   6.856   5.918 -0.6368  0.6229 -0.3958
16691SOL    HW151514   6.473   6.857   5.997 -2.2563  1.5168  0.7544
16691SOL    HW251515   6.425   6.766   5.886  3.0329  1.1078 -1.4675
16692SOL     OW51516   6.662   4.946  11.006 -0.3719  0.4855 -0.0920
16692SOL    HW151517   6.607   4.980  11.076  0.6077  2.1320 -0.0750
16692SOL    HW251518   6.622   4.978  10.925 -0.7250 -0.2562 -0.2182
16693SOL     OW51519   5.056   5.787   8.026  0.5812 -0.4728 -0.0256
16693SOL    HW151520   4.982   5.770   7.967 -0.8968  1.6901  1.0636
16693SOL    HW251521   5.117   5.839   7.974  0.5302 -0.7871 -0.4067
16694SOL     OW51522   5.925   0.449   0.672  0.4731 -0.2709  0.2080
16694SOL    HW151523   5.995   0.505   0.704 -1.0725  2.4624 -0.8138
16694SOL    HW251524   5.845   0.489   0.705 -0.7943 -1.0263 -1.7382
16695SOL     OW51525   7.619   5.224  11.349 -0.1073  0.0994 -0.0475
16695SOL    HW151526   7.667   5.190  11.274 -0.0724 -0.4737  0.2291
16695SOL    HW251527   7.529   5.193  11.336 -0.1309  0.1138  0.0808
16696SOL     OW51528   7.010   4.364   3.181 -0.2541  0.1354 -0.3253
16696SOL    HW151529   7.034   4.419   3.256 -1.8409  1.0962 -0.4814
16696SOL    HW251530   7.057   4.403   3.107 -0.1950  0.3465 -0.1769
16697SOL     OW51531   6.502   0.661   7.715  0.5179 -0.8397 -0.4885
16697SOL    HW151532   6.443   0.590   7.691  1.6695 -1.5791 -1.2546
16697SOL    HW251533   6.461   0.701   7.792  0.1598 -2.7554  0.3904
16698SOL     OW51534   4.416   6.867   0.208 -0.0410 -0.5856 -0.1578
16698SOL    HW151535   4.448   6.918   0.283  0.6672  0.2809 -1.0122
16698SOL    HW251536   4.333   6.907   0.185  0.7501  0.5576 -1.1388
16699SOL     OW51537   2.009   5.799  11.913 -0.3494 -0.0318  0.3164
16699SOL    HW151538   1.988   5.850  11.991  1.4849  0.2775  0.6546
16699SOL    HW251539   2.086   5.748  11.937 -0.8591 -1.3584 -0.7139
16700SOL     OW51540   3.983   4.295   6.866  0.1356 -0.3285  0.9768
16700SOL    HW151541   3.924   4.332   6.800  0.1187  0.3612  1.3790
16700SOL    HW251542   3.930   4.287   6.945  0.0774 -1.4133  0.8540
16701SOL     OW51543   2.714   2.519   0.359  0.8437  0.2374 -0.2458
16701SOL    HW151544   2.622   2.533   0.336 -0.7932 -4.4934  2.0793
16701SOL    HW251545   2.751   2.472   0.285  1.1227  1.1587 -0.7081
16702SOL     OW51546   7.652   4.292   9.100 -0.1527  0.8695  0.3448
16702SOL    HW151547   7.585   4.360   9.089 -0.6648  0.2770 -0.3696
16702SOL    HW251548   7.650   4.270   9.193 -3.3720 -1.4610 -0.0808
16703SOL     OW51549   6.270   0.421   6.647  0.1257  0.0685  0.3386
16703SOL    HW151550   6.296   0.342   6.600 -1.0040  0.4083 -0.9208
16703SOL    HW251551   6.183   0.442   6.612 -0.5630  0.6234  2.2442
16704SOL     OW51552   6.093   6.878   0.249  0.0636 -0.1283  0.2995
16704SOL    HW151553   6.182   6.854   0.221  0.4890  0.9992  0.6295
16704SOL    HW251554   6.053   6.914   0.170 -0.4560 -1.5020 -0.1032
16705SOL     OW51555   0.075   7.797   0.815  0.1325  0.0018 -0.0169
16705SOL    HW151556   0.071   7.827   0.724  0.7208  1.4488  0.4095
16705SOL    HW251557   0.157   7.748   0.820  1.1280  1.5988  0.1726
16706SOL     OW51558   5.420   4.226   0.299  0.4448 -0.7308  0.3356
16706SOL    HW151559   5.442   4.318   0.285  0.1921 -0.5785  0.9060
16706SOL    HW251560   5.333   4.228   0.340 -0.2363 -1.2757 -1.0095
16707SOL     OW51561   4.321   3.765   1.212  0.3108 -0.8628  0.1386
16707SOL    HW151562   4.306   3.770   1.118 -0.8958 -1.0684  0.3079
16707SOL    HW251563   4.415   3.784   1.222 -0.0715  2.0084 -0.8314
16708SOL     OW51564   1.921   2.647   9.099  0.3322 -0.1519 -0.2856
16708SOL    HW151565   1.917   2.697   9.018  0.3879 -2.3796 -1.7400
16708SOL    HW251566   1.832   2.616   9.113  0.6138 -1.0137 -0.3351
16709SOL     OW51567   3.244   5.125   5.814  0.2096  0.4380  0.4639
16709SOL    HW151568   3.308   5.063   5.849 -0.6355 -0.2190  0.8771
16709SOL    HW251569   3.259   5.206   5.864  0.0445 -0.0168  1.2652
16710SOL     OW51570   2.350   2.426   1.996  0.1995 -0.2106  0.0333
16710SOL    HW151571   2.308   2.342   2.014 -0.6373  0.3091  0.5635
16710SOL    HW251572   2.303   2.488   2.051  0.7008  0.6361 -0.4792
16711SOL     OW51573   5.434   2.703   4.328 -0.0893  0.3127  0.7951
16711SOL    HW151574   5.439   2.747   4.413  1.2518 -1.7982  1.8905
16711SOL    HW251575   5.519   2.660   4.318 -0.7510 -0.6956 -0.9272
16712SOL     OW51576   1.464   1.123  11.478  0.1028  0.1098  0.4641
16712SOL    HW151577   1.389   1.099  11.532  1.5229  0.9172  2.9595
16712SOL    HW251578   1.483   1.213  11.502  1.0837  0.3539 -1.0891
16713SOL     OW51579   3.374   1.850   8.529  0.5097  0.6440 -0.7939
16713SOL    HW151580   3.333   1.823   8.612  1.4055  1.3932 -0.0872
16713SOL    HW251581   3.339   1.938   8.513 -1.9692 -0.5636 -2.8002
16714SOL     OW51582   0.345   7.961  10.543  0.2931 -0.3558  0.3293
16714SOL    HW151583   0.436   7.953  10.514 -0.0183 -0.1783 -0.7512
16714SOL    HW251584   0.298   7.996  10.467 -0.7646 -0.8639  0.7217
16715SOL     OW51585   6.082   0.593   5.749 -0.1465 -0.2037  0.7347
16715SOL    HW151586   6.133   0.603   5.669 -0.1106  0.0133  0.7815
16715SOL    HW251587   6.035   0.676   5.758  1.7093  0.7844  2.2164
16716SOL     OW51588   2.367   7.694   3.814 -0.1959 -0.4510 -0.1533
16716SOL    HW151589   2.310   7.638   3.761  0.2966  1.3507 -2.8276
16716SOL    HW251590   2.308   7.738   3.875 -1.2036 -0.8534 -0.8218
16717SOL     OW51591   7.206   3.006   3.729  0.1966 -0.1969 -0.1042
16717SOL    HW151592   7.154   3.000   3.809 -0.0240 -0.9960 -0.2928
16717SOL    HW251593   7.277   2.944   3.742  1.1918  0.9737  0.1964
16718SOL     OW51594   7.530   7.511   2.715  0.4788  0.4055  0.0734
16718SOL    HW151595   7.531   7.589   2.659 -1.2675 -0.1315 -0.7881
16718SOL    HW251596   7.509   7.440   2.655 -3.0253  0.0022  1.5249
16719SOL     OW51597   5.682   1.123   8.547 -0.1477  0.0471 -0.1321
16719SOL    HW151598   5.596   1.147   8.580  0.3938  1.6163  0.2229
16719SOL    HW251599   5.744   1.172   8.602  0.8606  1.1618 -2.1419
16720SOL     OW51600   2.746   3.244   2.815 -0.3443  0.1310  0.3138
16720SOL    HW151601   2.674   3.213   2.760 -0.5284  0.3852  0.4078
16720SOL    HW251602   2.708   3.250   2.902  0.7372 -3.2375  1.1450
16721SOL     OW51603   0.904   7.946   9.512  0.1822 -0.2954 -0.5483
16721SOL    HW151604   0.869   7.982   9.431 -0.4179  1.4216  0.4059
16721SOL    HW251605   0.991   7.983   9.520 -0.4755  1.1455  0.4904
16722SOL     OW51606   4.593   5.511   5.515 -0.1727  0.0904 -0.0192
16722SOL    HW151607   4.626   5.568   5.446 -0.6234 -0.6062 -0.8173
16722SOL    HW251608   4.505   5.486   5.487 -0.6169  0.2966  1.1132
16723SOL     OW51609   2.002   2.188   7.298  0.1012  0.2139 -0.2008
16723SOL    HW151610   2.043   2.104   7.281  1.0086  0.3411  1.2409
16723SOL    HW251611   1.936   2.170   7.364 -0.7769  0.3866 -1.0007
16724SOL     OW51612   5.793   2.181  11.318  0.4756  0.3793 -0.1423
16724SOL    HW151613   5.810   2.189  11.412 -0.1969  0.3755 -0.0183
16724SOL    HW251614   5.785   2.271  11.287  3.7397  0.5545 -0.7930
16725SOL     OW51615   2.495   2.921   3.846 -0.1677 -0.1819 -0.3835
16725SOL    HW151616   2.464   2.871   3.922  0.6950 -0.5213 -0.2468
16725SOL    HW251617   2.445   3.003   3.849  1.2839  0.6975  1.7361
16726SOL     OW51618   4.117   6.001   6.358  0.1752 -0.2076 -0.3442
16726SOL    HW151619   4.195   6.050   6.383  0.1522 -1.2492  2.0028
16726SOL    HW251620   4.144   5.909   6.365 -1.4084 -0.5943  1.1105
16727SOL     OW51621   6.157   7.358   1.552  0.5008  0.1208  0.1828
16727SOL    HW151622   6.184   7.378   1.642  1.6091 -0.5147  0.0041
16727SOL    HW251623   6.222   7.295   1.521  0.8083  1.1968 -1.4642
16728SOL     OW51624   6.801   2.766  11.283 -0.0173 -0.1152  0.1772
16728SOL    HW151625   6.724   2.739  11.333  0.3381  0.8480  1.3107
16728SOL    HW251626   6.798   2.862  11.285  1.3390 -0.0535  0.4937
16729SOL     OW51627   0.835   4.244   4.381  0.1318  0.1300 -0.0684
16729SOL    HW151628   0.848   4.254   4.287 -0.0535 -0.1682 -0.1288
16729SOL    HW251629   0.745   4.269   4.396 -0.5439 -1.9210 -0.3205
16730SOL     OW51630   1.957   3.475   0.919 -0.5269  0.1986 -0.9803
16730SOL    HW151631   1.934   3.559   0.881  2.7922  1.2719 -0.9919
16730SOL    HW251632   1.914   3.410   0.864 -3.4862  1.7921 -0.7554
16731SOL     OW51633   1.969   0.158   8.850 -0.2328 -0.7127  0.6568
16731SOL    HW151634   1.937   0.240   8.888 -2.1065 -0.9286 -0.3146
16731SOL    HW251635   1.965   0.095   8.923 -1.7196 -0.6244  0.6795
16732SOL     OW51636   4.229   5.189   0.226 -0.1689 -0.4262 -0.7712
16732SOL    HW151637   4.224   5.266   0.169  2.6877  0.9842  0.7166
16732SOL    HW251638   4.145   5.188   0.272 -0.2574  1.9044 -0.7495
16733SOL     OW51639   0.132   3.912   4.383 -0.2339 -0.6008 -0.7444
16733SOL    HW151640   0.170   3.899   4.296  0.9417  0.7604 -0.4706
16733SOL    HW251641   0.091   3.828   4.404  0.6706 -1.4015 -2.0285
16734SOL     OW51642   1.480   2.853  10.389  0.0343  0.0613  0.2457
16734SOL    HW151643   1.503   2.771  10.344  0.1451  0.5244 -0.5532
16734SOL    HW251644   1.527   2.921  10.341  0.7580  0.4990  1.5166
16735SOL     OW51645   7.433   6.737   8.246  0.2370  0.8695 -0.0897
16735SOL    HW151646   7.388   6.803   8.299 -0.4390  0.3869 -0.0510
16735SOL    HW251647   7.366   6.705   8.185  0.5295  0.1592 -0.0492
16736SOL     OW51648   7.517   4.384  10.953 -0.9240 -0.3554 -0.1458
16736SOL    HW151649   7.571   4.306  10.966 -1.5573 -0.8094 -0.2303
16736SOL    HW251650   7.543   4.418  10.867 -1.8989 -1.4886 -0.9201
16737SOL     OW51651   4.443   7.665   7.355  0.5655  0.1759  0.3111
16737SOL    HW151652   4.418   7.587   7.306  0.6569 -0.2928  1.0074
16737SOL    HW251653   4.538   7.669   7.347  0.5201  0.5301 -0.1736
16738SOL     OW51654   0.476   2.349   2.702 -0.6241  0.2088 -0.8927
16738SOL    HW151655   0.568   2.370   2.720 -1.0990  1.3771  0.3227
16738SOL    HW251656   0.480   2.273   2.644  1.1037 -0.7715  0.3949
16739SOL     OW51657   7.321   0.959   3.768  0.3003 -0.3179  0.2430
16739SOL    HW151658   7.357   0.913   3.845  2.5904 -0.0945 -0.6132
16739SOL    HW251659   7.294   1.044   3.802 -2.2534 -1.5087  1.4823
16740SOL     OW51660   0.307   0.524   7.627  0.5222  0.2031  0.4822
16740SOL    HW151661   0.272   0.605   7.590 -2.0380 -0.6341  0.8516
16740SOL    HW251662   0.361   0.552   7.700  2.7065  1.7028 -1.5757
16741SOL     OW51663   1.771   7.047   3.295 -0.1241  0.0349  0.2541
16741SOL    HW151664   1.833   7.027   3.365  0.7424 -0.2894 -0.5807
16741SOL    HW251665   1.725   6.965   3.280 -0.4684  0.1645  0.5894
16742SOL     OW51666   2.572   5.709   0.802 -0.3929 -0.2059  0.1326
16742SOL    HW151667   2.665   5.691   0.814  0.5339  2.0700 -2.4949
16742SOL    HW251668   2.546   5.657   0.726 -0.6022  0.9263 -0.5968
16743SOL     OW51669   1.743   5.547  12.063  0.1128  0.2648 -0.3596
16743SOL    HW151670   1.833   5.517  12.055  0.5349  0.9166  1.4742
16743SOL    HW251671   1.698   5.477  12.111 -0.2346  0.1621 -0.8312
16744SOL     OW51672   7.256   5.176  10.588 -0.0153 -0.4357  0.0649
16744SOL    HW151673   7.275   5.202  10.679 -1.1919  0.1828  0.1571
16744SOL    HW251674   7.321   5.222  10.536  1.1343 -1.3529  0.6250
16745SOL     OW51675   5.551   2.076  11.600 -0.5020  0.2055  0.4626
16745SOL    HW151676   5.472   2.110  11.641 -0.8638  0.6203 -0.5563
16745SOL    HW251677   5.523   1.992  11.561 -0.5885  0.5900 -0.3332
16746SOL     OW51678   6.803   5.305   1.596  0.0911 -0.0520 -0.4091
16746SOL    HW151679   6.803   5.353   1.679 -0.5017  2.3651 -1.6921
16746SOL    HW251680   6.873   5.241   1.605 -0.7144 -0.6517  2.3482
16747SOL     OW51681   3.655   2.921   0.032 -0.6057 -0.9628 -0.0036
16747SOL    HW151682   3.749   2.907   0.035 -0.4193 -0.4412 -2.0906
16747SOL    HW251683   3.617   2.833   0.035  0.1238 -1.4242 -2.4518
16748SOL     OW51684   6.607   0.766   5.196  0.8024  0.4079 -0.3189
16748SOL    HW151685   6.555   0.840   5.165  2.4961  2.4809  1.5282
16748SOL    HW251686   6.542   0.701   5.224 -0.7980  2.3453  0.6622
16749SOL     OW51687   3.714   2.326   1.426  0.7456  0.3852 -0.0026
16749SOL    HW151688   3.805   2.299   1.440  1.2522  1.0571 -1.7387
16749SOL    HW251689   3.696   2.304   1.335 -0.5497  1.0465  0.0713
16750SOL     OW51690   5.391   0.226   2.622  0.1068 -0.0514  0.3409
16750SOL    HW151691   5.389   0.190   2.534 -1.7327  0.4800  0.1183
16750SOL    HW251692   5.299   0.229   2.649  0.4554  1.5790  1.5326
16751SOL     OW51693   6.667   6.573   0.695  0.4430 -0.2911 -0.1859
16751SOL    HW151694   6.747   6.602   0.652  0.6603 -0.5781  0.0194
16751SOL    HW251695   6.602   6.571   0.625  0.7057 -0.4193 -0.4300
16752SOL     OW51696   5.246   7.901  10.869 -0.3090 -0.1163  0.3970
16752SOL    HW151697   5.338   7.875  10.862 -0.9655 -2.6792  0.3140
16752SOL    HW251698   5.201   7.848  10.803 -2.0986 -0.3317  1.7155
16753SOL     OW51699   3.880   2.549  10.912  0.1350  0.3990  0.0738
16753SOL    HW151700   3.902   2.580  10.824  1.3924 -0.2130  0.1500
16753SOL    HW251701   3.822   2.475  10.897  0.2363  0.3812 -0.2427
16754SOL     OW51702   6.465   2.664   8.098  0.1372  0.5717  0.1088
16754SOL    HW151703   6.423   2.601   8.040  1.4740 -1.3995  1.1283
16754SOL    HW251704   6.474   2.743   8.046 -0.1023 -0.6094 -1.8246
16755SOL     OW51705   5.186   6.594   5.484  0.1118 -0.5894  0.2714
16755SOL    HW151706   5.169   6.546   5.565 -0.6783  0.6619  0.8864
16755SOL    HW251707   5.278   6.577   5.465  1.1783  1.3810  3.0527
16756SOL     OW51708   2.400   6.574   6.293 -0.0687  0.7841  0.4771
16756SOL    HW151709   2.389   6.479   6.292  0.2165  0.7245 -1.8031
16756SOL    HW251710   2.485   6.588   6.334  0.4955 -0.0466 -0.3597
16757SOL     OW51711   6.662   2.697   7.075 -0.0383  0.9483 -0.2754
16757SOL    HW151712   6.592   2.759   7.059  0.5281  1.2043 -2.0575
16757SOL    HW251713   6.648   2.666   7.164 -1.7821  1.7641 -0.2338
16758SOL     OW51714   6.105   5.130   0.432 -0.5583 -0.0511 -0.0826
16758SOL    HW151715   6.058   5.054   0.396 -0.4710  0.5954 -1.6702
16758SOL    HW251716   6.049   5.205   0.413  0.1949  0.4940 -0.2125
16759SOL     OW51717   0.818   4.353   6.606  0.6925 -0.7262 -0.0634
16759SOL    HW151718   0.836   4.260   6.594  0.0997 -0.7920 -0.4587
16759SOL    HW251719   0.893   4.385   6.657  1.3770 -1.2185 -0.7307
16760SOL     OW51720   2.939   3.391   8.067 -0.2456  0.0854 -0.3690
16760SOL    HW151721   3.000   3.453   8.027  0.5795 -0.5406 -0.1280
16760SOL    HW251722   2.961   3.392   8.160  1.1338 -1.9636 -0.6041
16761SOL     OW51723   2.876   6.017  12.197  0.1334 -0.2624  0.2083
16761SOL    HW151724   2.799   6.067  12.169 -1.1980 -2.3045 -0.0116
16761SOL    HW251725   2.931   6.012  12.119 -0.2978 -0.1386 -0.1066
16762SOL     OW51726   1.273   7.612  10.337  0.0381  0.3072 -0.2939
16762SOL    HW151727   1.264   7.576  10.425  0.5860  1.1438  0.1093
16762SOL    HW251728   1.198   7.671  10.327 -0.6355 -0.5997 -0.8076
16763SOL     OW51729   1.743   3.014   2.195 -0.4825  0.4639  0.1817
16763SOL    HW151730   1.652   2.982   2.198 -0.4129  0.2902  0.4162
16763SOL    HW251731   1.783   2.965   2.123 -0.1511 -0.5760  1.0441
16764SOL     OW51732   4.121   6.129  11.218 -0.3288  0.1300 -0.6482
16764SOL    HW151733   4.169   6.196  11.171  0.2578  0.0432 -0.1826
16764SOL    HW251734   4.083   6.074  11.149 -1.6557  1.5045 -1.0426
16765SOL     OW51735   3.175   0.717   7.936  0.3908 -0.3082 -0.7381
16765SOL    HW151736   3.226   0.752   7.863  1.1592  0.4929  0.1647
16765SOL    HW251737   3.086   0.749   7.921  0.0206 -1.9225 -2.4623
16766SOL     OW51738   7.491   5.279   2.925  0.0447  0.2963 -0.2231
16766SOL    HW151739   7.503   5.280   3.020  0.4770 -0.1545 -0.2706
16766SOL    HW251740   7.528   5.362   2.895 -2.3727  1.6202  0.2550
16767SOL     OW51741   7.409   0.783   0.282 -0.5706 -0.6413 -0.1284
16767SOL    HW151742   7.380   0.701   0.241  1.1998 -1.5771  0.3901
16767SOL    HW251743   7.423   0.760   0.374  3.6082 -0.9277 -0.6224
16768SOL     OW51744   2.579   0.812  12.163 -0.5217 -0.1878 -0.0912
16768SOL    HW151745   2.631   0.874  12.216 -0.2996 -0.3339 -0.1367
16768SOL    HW251746   2.528   0.763  12.227 -1.1078  0.4146 -0.0932
16769SOL     OW51747   5.482   6.297  10.580 -0.3869 -0.3641  0.3455
16769SOL    HW151748   5.459   6.215  10.625 -2.1950 -1.7809 -2.8275
16769SOL    HW251749   5.397   6.340  10.565  0.4840  2.0064  1.5443
16770SOL     OW51750   5.879   0.440  12.193 -0.0704  0.3990 -0.0313
16770SOL    HW151751   5.869   0.366  12.133 -2.9365  0.3219  0.4357
16770SOL    HW251752   5.967   0.429  12.230 -0.4633 -2.8751  0.1705
16771SOL     OW51753   2.172   0.257   7.884 -0.3160 -0.2070  0.6284
16771SOL    HW151754   2.176   0.341   7.930 -1.2092 -0.4209  1.1073
16771SOL    HW251755   2.079   0.239   7.875 -0.1304 -1.1662  0.5610
16772SOL     OW51756   2.659   6.418   9.504  0.4149  0.1996 -0.0452
16772SOL    HW151757   2.626   6.328   9.506  1.3614 -0.1383  0.6415
16772SOL    HW251758   2.580   6.472   9.505 -0.1483 -0.5904  1.4621
16773SOL     OW51759   7.662   1.144   2.121  0.0196 -0.6577  0.4140
16773SOL    HW151760   7.669   1.051   2.097 -0.2417 -0.2130 -1.5569
16773SOL    HW251761   7.746   1.163   2.163  0.2520 -1.6930  0.4606
16774SOL     OW51762   3.934   6.705  12.288 -0.1081  0.3629 -0.1457
16774SOL    HW151763   3.852   6.723  12.334 -0.3457 -1.8839  0.4073
16774SOL    HW251764   3.912   6.636  12.225  1.6206 -1.3615  1.0350
16775SOL     OW51765   4.790   1.950  10.961  0.2474  0.5282  0.4178
16775SOL    HW151766   4.858   1.936  10.894 -1.1366 -2.9400 -0.4640
16775SOL    HW251767   4.708   1.938  10.914 -0.9155  1.3928  2.1295
16776SOL     OW51768   1.601   4.666   4.346  0.4619  0.4203  0.4059
16776SOL    HW151769   1.565   4.594   4.398  0.8229 -0.1971 -0.1787
16776SOL    HW251770   1.524   4.710   4.308  0.2773 -1.2886 -1.3770
16777SOL     OW51771   6.752   1.533  11.665  0.2775  0.7181 -0.4046
16777SOL    HW151772   6.790   1.502  11.582  0.2651 -0.9959  0.1798
16777SOL    HW251773   6.760   1.458  11.724 -0.7382  1.5307  0.8184
16778SOL     OW51774   2.821   0.402   3.881 -0.1221  0.4341 -0.2130
16778SOL    HW151775   2.833   0.393   3.787  0.5070 -0.9171 -0.0201
16778SOL    HW251776   2.908   0.388   3.918 -0.7264 -1.1711  0.6849
16779SOL     OW51777   0.206   5.835   8.652  0.3281 -0.1699 -0.0856
16779SOL    HW151778   0.219   5.751   8.696 -0.8809 -0.5255 -0.3705
16779SOL    HW251779   0.260   5.897   8.701  1.1168 -1.0802  0.2221
16780SOL     OW51780   0.934   2.028   7.820  0.0070 -0.1027 -0.7654
16780SOL    HW151781   0.939   2.123   7.831  1.5159 -0.3863  1.7863
16780SOL    HW251782   1.023   2.002   7.794 -0.0482 -0.9259 -0.1825
16781SOL     OW51783   5.050   1.455   3.305 -0.3220 -0.1345  0.1163
16781SOL    HW151784   5.017   1.529   3.355 -2.2045  0.6010 -2.0229
16781SOL    HW251785   5.015   1.468   3.217  1.2944 -2.3072 -0.9554
16782SOL     OW51786   3.642   4.294   2.793 -0.2212 -0.1809  0.0912
16782SOL    HW151787   3.723   4.251   2.819 -1.7862 -2.0080  2.4712
16782SOL    HW251788   3.669   4.374   2.749  2.8634  0.3202  2.5916
16783SOL     OW51789   4.387   0.144   7.513  0.5723  0.6494  0.1984
16783SOL    HW151790   4.322   0.073   7.511  1.7934 -0.5079  0.0219
16783SOL    HW251791   4.471   0.099   7.502  1.3330  2.2069 -0.5274
16784SOL     OW51792   6.052   3.884   8.634  1.0393 -0.1103 -0.3269
16784SOL    HW151793   6.008   3.916   8.555  0.0558  0.2525  0.3579
16784SOL    HW251794   6.118   3.951   8.654  0.3744  0.4785 -0.0733
16785SOL     OW51795   0.471   7.617   0.401  0.6086 -0.7358  0.1015
16785SOL    HW151796   0.533   7.662   0.457 -0.2238 -0.1754  0.5903
16785SOL    HW251797   0.456   7.533   0.443  0.1014 -0.3770  0.6434
16786SOL     OW51798   2.564   5.243   6.680 -0.2016  0.3318  0.1697
16786SOL    HW151799   2.617   5.322   6.690 -1.3034  1.0527  0.4856
16786SOL    HW251800   2.610   5.191   6.615  1.2923  0.5797  0.9907
16787SOL     OW51801   2.478   7.663   9.074  0.8423  0.2677  0.2011
16787SOL    HW151802   2.485   7.726   9.146  0.9514  0.4254  0.0541
16787SOL    HW251803   2.507   7.712   8.997  1.9400 -0.2733  0.2576
16788SOL     OW51804   1.150   5.624   0.728  0.8775  0.2310 -0.8250
16788SOL    HW151805   1.179   5.656   0.642  0.0089  3.3808 -0.1046
16788SOL    HW251806   1.076   5.681   0.751  0.0063 -1.6051  1.3051
16789SOL     OW51807   6.454   6.679   5.350  0.1205  0.3617 -0.3940
16789SOL    HW151808   6.473   6.679   5.256 -2.1878  0.6632 -0.9179
16789SOL    HW251809   6.496   6.758   5.384  1.2258  0.0920 -1.1012
16790SOL     OW51810   6.342   5.733   5.934 -0.0078  0.0182 -0.0090
16790SOL    HW151811   6.338   5.717   5.840 -0.1222 -0.2098  0.0340
16790SOL    HW251812   6.408   5.801   5.944 -0.6238  0.6690 -0.3321
16791SOL     OW51813   2.059   0.352   2.424  0.3579 -0.3713 -0.6773
16791SOL    HW151814   2.128   0.418   2.416 -0.5175  0.4378 -2.2196
16791SOL    HW251815   2.042   0.346   2.518  0.7477  1.3233 -0.4565
16792SOL     OW51816   0.272   0.783   1.892 -0.7557  0.1869 -0.1896
16792SOL    HW151817   0.263   0.803   1.985 -3.7479  1.5546 -0.6551
16792SOL    HW251818   0.212   0.709   1.877 -0.6150  0.2408 -1.1001
16793SOL     OW51819   5.940   5.220   3.870 -0.6025  0.0170 -1.1392
16793SOL    HW151820   5.951   5.219   3.775 -0.2255  0.1128 -1.0977
16793SOL    HW251821   5.958   5.130   3.897  3.2690  0.7059 -0.7377
16794SOL     OW51822   0.572   1.510   1.814  0.3503  0.0382  0.3767
16794SOL    HW151823   0.661   1.539   1.833  0.8267 -1.0180 -0.1525
16794SOL    HW251824   0.582   1.446   1.743 -0.8871  0.3139 -0.0735
16795SOL     OW51825   6.587   5.406  10.021 -0.1677  0.1038 -0.5534
16795SOL    HW151826   6.508   5.453   9.993 -0.4400 -1.3571 -2.4195
16795SOL    HW251827   6.649   5.417   9.949 -0.3717 -2.6379 -1.2521
16796SOL     OW51828   1.154   1.044  10.547 -0.0057 -0.8415  0.5362
16796SOL    HW151829   1.211   1.119  10.530 -1.4601  0.3007  0.4056
16796SOL    HW251830   1.125   1.056  10.637 -0.5144 -1.0560  0.4038
16797SOL     OW51831   2.595   1.194  12.158 -0.5484  0.3966  0.0034
16797SOL    HW151832   2.529   1.263  12.151 -0.4440  0.7608  2.0605
16797SOL    HW251833   2.571   1.132  12.088 -3.0783  0.5292  0.6284
16798SOL     OW51834   7.378   0.735   1.673 -0.1256  0.1806 -0.1104
16798SOL    HW151835   7.424   0.817   1.654  0.9017 -0.6691 -1.4769
16798SOL    HW251836   7.441   0.666   1.650 -1.4471 -0.9983 -0.3412
16799SOL     OW51837   7.957   2.909   5.500  0.3709  0.0988  0.1943
16799SOL    HW151838   7.944   2.852   5.424 -0.9205  0.9545 -0.2567
16799SOL    HW251839   8.007   2.983   5.466  1.3704 -0.3782  0.6037
16800SOL     OW51840   2.821   3.542   5.526  0.0729  0.1882 -0.4483
16800SOL    HW151841   2.846   3.455   5.496 -0.3330  0.4335 -1.5400
16800SOL    HW251842   2.847   3.544   5.618  2.1316 -0.3061 -0.9549
16801SOL     OW51843   7.049   5.196   9.114  0.2185  0.1182  0.5052
16801SOL    HW151844   6.982   5.262   9.096  1.1856  0.9417 -0.2536
16801SOL    HW251845   7.042   5.179   9.208  0.6026  2.0914  0.9356
16802SOL     OW51846   5.362   6.936   1.705 -0.0537 -0.1882  0.1039
16802SOL    HW151847   5.443   6.887   1.692 -0.1037  0.1650 -1.8859
16802SOL    HW251848   5.314   6.888   1.773  1.2273 -1.1404  0.3578
16803SOL     OW51849   1.684   5.475   3.426  0.1065 -0.2175  0.3623
16803SOL    HW151850   1.598   5.437   3.443 -0.1957  1.0373  1.8702
16803SOL    HW251851   1.717   5.426   3.352 -0.7339 -2.6122  1.4693
16804SOL     OW51852   3.246   0.534   7.577  0.2182 -0.6114  0.4723
16804SOL    HW151853   3.336   0.568   7.575  0.3019 -0.8286  0.5228
16804SOL    HW251854   3.191   0.612   7.572  0.3999 -0.3524  2.0277
16805SOL     OW51855   7.866   3.024   6.895 -0.1253 -0.3756 -0.0239
16805SOL    HW151856   7.856   3.091   6.962 -0.3565  0.3889 -0.7952
16805SOL    HW251857   7.777   2.994   6.878 -0.0901 -0.4242 -0.1252
16806SOL     OW51858   2.658   2.298   1.711  0.0490  0.6584 -0.5364
16806SOL    HW151859   2.609   2.304   1.629  1.5971 -0.7125 -1.6216
16806SOL    HW251860   2.622   2.221   1.755 -0.3460  1.0248 -0.2055
16807SOL     OW51861   7.767   4.195   1.580 -0.2793 -0.1979 -0.2594
16807SOL    HW151862   7.728   4.231   1.660  0.3714 -1.3915  0.6380
16807SOL    HW251863   7.709   4.224   1.510 -0.7674  1.0453  0.6124
16808SOL     OW51864   2.137   1.130  11.173  0.5828 -0.2690 -0.9076
16808SOL    HW151865   2.222   1.094  11.199  0.6251  0.4157 -0.0359
16808SOL    HW251866   2.155   1.184  11.097  0.8337 -0.5678 -1.0623
16809SOL     OW51867   4.610   6.607   6.012 -0.7718  0.0609 -0.1401
16809SOL    HW151868   4.601   6.547   6.086 -0.4241  1.5484  1.1634
16809SOL    HW251869   4.704   6.607   5.994 -1.0909 -2.1750 -2.2729
16810SOL     OW51870   7.811   1.253   7.987  0.5395  0.1588  0.4192
16810SOL    HW151871   7.843   1.275   7.899 -0.4847  1.7786  0.3996
16810SOL    HW251872   7.884   1.208   8.028  0.4479 -2.2841 -1.8315
16811SOL     OW51873   0.246   1.742   9.336  0.2608 -0.0144  0.8148
16811SOL    HW151874   0.161   1.712   9.307 -0.1788  0.9567  1.0599
16811SOL    HW251875   0.302   1.735   9.259  0.1138 -1.1836  0.7999
16812SOL     OW51876   7.724   0.868   0.858  0.4451  0.2849  0.3520
16812SOL    HW151877   7.811   0.885   0.894 -0.1318  1.6413  1.2248
16812SOL    HW251878   7.667   0.929   0.905 -1.2721 -1.6861  0.9954
16813SOL     OW51879   2.798   2.868   3.232 -0.4762 -0.0694  0.2511
16813SOL    HW151880   2.860   2.856   3.304 -0.8248 -1.0382  0.4080
16813SOL    HW251881   2.768   2.958   3.241  1.4633  0.6752 -0.2977
16814SOL     OW51882   1.545   5.774   3.073 -0.2966 -0.3418  0.0594
16814SOL    HW151883   1.507   5.862   3.084  0.7644  0.0987  0.3222
16814SOL    HW251884   1.606   5.765   3.146  2.4388  0.2294 -1.9853
16815SOL     OW51885   1.073   6.769  11.770  0.2527  0.7392 -0.4321
16815SOL    HW151886   1.115   6.692  11.809  0.2356  0.2252 -1.4020
16815SOL    HW251887   1.128   6.842  11.798  0.5535  0.3185  0.0997
16816SOL     OW51888   5.918   2.267  10.063 -0.0463  0.0767 -0.0469
16816SOL    HW151889   5.882   2.352  10.090  0.0903 -0.1317  0.8315
16816SOL    HW251890   5.978   2.288   9.992 -1.5086  0.4859 -1.2106
16817SOL     OW51891   7.490   0.973   6.343 -0.3918  0.0592 -0.3392
16817SOL    HW151892   7.550   0.930   6.282  0.2501  0.4333  0.0238
16817SOL    HW251893   7.411   0.919   6.340 -0.1141 -0.3256 -0.9698
16818SOL     OW51894   6.897   6.346   8.151 -0.4276  0.3331 -0.0666
16818SOL    HW151895   6.966   6.355   8.085 -0.8752  2.8890 -0.3069
16818SOL    HW251896   6.816   6.344   8.102 -0.6197 -1.7820  0.2662
16819SOL     OW51897   6.838   0.140   9.932 -0.4878  0.3363  0.8969
16819SOL    HW151898   6.858   0.056   9.973 -2.1969 -0.1942  0.7336
16819SOL    HW251899   6.913   0.159   9.877 -0.0412 -1.0568  0.9917
16820SOL     OW51900   0.041   0.170   9.472 -0.3240 -0.1387  0.9016
16820SOL    HW151901  -0.024   0.167   9.402  0.4284 -1.7931  0.2109
16820SOL    HW251902  -0.008   0.144   9.550 -0.9179  0.5839  0.7800
16821SOL     OW51903   7.795   4.791  10.694  0.3305  0.4043  0.6091
16821SOL    HW151904   7.883   4.754  10.702  0.1140 -0.2616 -0.0369
16821SOL    HW251905   7.797   4.840  10.612  0.0234  0.1626  0.4537
16822SOL     OW51906   3.788   5.051   1.728 -0.4099  0.1921  0.1695
16822SOL    HW151907   3.866   5.098   1.699  0.1942 -1.1640 -0.4698
16822SOL    HW251908   3.821   4.978   1.780 -1.3399  0.4790  1.2262
16823SOL     OW51909   5.026   7.821   0.116  0.1898  0.4320 -0.8105
16823SOL    HW151910   5.082   7.743   0.110  0.1387  0.3145  0.0866
16823SOL    HW251911   5.002   7.826   0.209 -1.0210  0.6760 -1.1263
16824SOL     OW51912   1.113   5.241   8.210 -0.0361  0.2140  0.2735
16824SOL    HW151913   1.206   5.219   8.206 -0.4723 -1.7336 -0.1649
16824SOL    HW251914   1.082   5.230   8.121 -1.0893 -1.2337  0.7842
16825SOL     OW51915   0.345   4.302   1.106 -0.1790  0.3662 -0.6966
16825SOL    HW151916   0.384   4.215   1.097 -0.9970 -0.2024  0.8378
16825SOL    HW251917   0.418   4.360   1.126  0.2723 -0.1005 -0.9601
16826SOL     OW51918   3.997   6.089   1.534 -0.4475 -0.0070  0.0070
16826SOL    HW151919   4.087   6.063   1.515 -0.4520  0.1911 -0.3022
16826SOL    HW251920   4.000   6.121   1.624 -0.1093  0.4098 -0.1445
16827SOL     OW51921   5.623   0.307   9.809  0.2231  0.0042 -0.2631
16827SOL    HW151922   5.697   0.255   9.779 -0.6133 -0.3584 -1.7981
16827SOL    HW251923   5.647   0.334   9.898  1.1004 -2.1875  0.2375
16828SOL     OW51924   2.116   1.702   0.865  0.2029  0.6366  0.0404
16828SOL    HW151925   2.050   1.763   0.831 -0.1654  1.9232  2.7939
16828SOL    HW251926   2.185   1.758   0.900  2.1819 -0.6729 -1.5752
16829SOL     OW51927   4.014   2.281  11.327  0.0761  0.4273  0.4849
16829SOL    HW151928   3.976   2.274  11.239  0.4645  0.3291  0.3266
16829SOL    HW251929   3.956   2.343  11.372 -0.7676 -0.3463  0.5058
16830SOL     OW51930   1.064   6.779   6.731  0.1224  0.3996 -0.0478
16830SOL    HW151931   1.063   6.804   6.823 -1.1406  0.5377 -0.0797
16830SOL    HW251932   0.976   6.802   6.699  0.1631 -0.6792 -0.9976
16831SOL     OW51933   2.045   2.996   6.615  0.1948 -0.2061 -0.1258
16831SOL    HW151934   1.980   3.027   6.678 -0.1584 -1.7488  0.2948
16831SOL    HW251935   2.004   3.010   6.530  1.2013  3.1784 -0.2194
16832SOL     OW51936   7.391   6.048   7.249  0.0036  0.6094  0.5479
16832SOL    HW151937   7.440   5.982   7.200  0.7848  0.8288  1.0178
16832SOL    HW251938   7.401   6.022   7.341  0.3373  1.3876  0.7371
16833SOL     OW51939   3.231   0.160   4.950 -0.1979 -0.2353 -0.1856
16833SOL    HW151940   3.278   0.128   4.873 -3.6493 -3.8142 -1.1793
16833SOL    HW251941   3.188   0.082   4.986 -2.1496  2.0007  2.8890
16834SOL     OW51942   4.100   4.112   0.032 -0.4292  0.2900 -0.3391
16834SOL    HW151943   4.067   4.053  -0.036  1.2996  0.4681 -1.4142
16834SOL    HW251944   4.082   4.067   0.114 -0.5225 -1.0342 -1.0590
16835SOL     OW51945   4.764   6.734  12.133  0.1444 -0.0020  0.2837
16835SOL    HW151946   4.839   6.686  12.098 -1.4502 -2.6257  0.1491
16835SOL    HW251947   4.734   6.788  12.060  1.8139  1.0305  0.3209
16836SOL     OW51948   4.479   6.654   1.154 -0.3123 -0.2889  0.1755
16836SOL    HW151949   4.465   6.723   1.089  1.4477  1.2743  1.3537
16836SOL    HW251950   4.444   6.690   1.235 -0.0869 -1.1295  0.6617
16837SOL     OW51951   5.689   0.692   1.550  0.0265 -0.0381  1.1800
16837SOL    HW151952   5.725   0.705   1.637 -1.7313 -0.9008  2.0829
16837SOL    HW251953   5.657   0.602   1.550 -1.7570  0.5445  0.3487
16838SOL     OW51954   0.854   0.692   8.966 -0.1557 -0.5062  0.5858
16838SOL    HW151955   0.907   0.645   8.901 -0.3405 -0.8859  0.7089
16838SOL    HW251956   0.875   0.649   9.049 -1.4589 -1.3690  0.4920
16839SOL     OW51957   0.078   0.390   9.630  0.3767 -0.1798 -0.0688
16839SOL    HW151958   0.033   0.324   9.576 -0.5870  0.2237  0.2093
16839SOL    HW251959   0.011   0.420   9.691  0.3239  2.1370 -1.1520
16840SOL     OW51960   0.325   1.921  11.457 -0.5921  0.1544 -0.7603
16840SOL    HW151961   0.263   1.883  11.395  1.2358 -2.6734 -1.0256
16840SOL    HW251962   0.385   1.971  11.403  0.8591 -2.1105 -1.3805
16841SOL     OW51963   5.043   6.445  10.663 -0.2125 -0.3423  0.5557
16841SOL    HW151964   4.950   6.438  10.643 -0.1976  1.5743 -0.3401
16841SOL    HW251965   5.082   6.368  10.621 -0.9802  0.5102 -1.8699
16842SOL     OW51966   2.273   1.718   4.809  0.3248  0.0265 -0.1475
16842SOL    HW151967   2.304   1.807   4.797  1.1937 -0.1304  0.7791
16842SOL    HW251968   2.348   1.663   4.787  0.2739 -0.4125  0.7129
16843SOL     OW51969   7.333   2.238   3.831  0.9537  0.0318  0.2257
16843SOL    HW151970   7.387   2.159   3.836  1.1838  0.1256 -0.7890
16843SOL    HW251971   7.360   2.282   3.751 -1.4614 -0.5553 -1.0012
16844SOL     OW51972   0.598   4.190   3.935 -0.3045  0.0303  0.1812
16844SOL    HW151973   0.573   4.266   3.883 -0.6427  0.9318  1.5879
16844SOL    HW251974   0.578   4.115   3.880  0.3830  0.9657 -1.3942
16845SOL     OW51975   7.179   3.209   3.153  0.0400 -0.3085 -0.1011
16845SOL    HW151976   7.104   3.236   3.101  1.1791  0.1584 -1.5775
16845SOL    HW251977   7.165   3.249   3.239 -0.8439  0.6831 -0.6892
16846SOL     OW51978   7.773   6.636   5.400  0.5917  0.4864  0.4005
16846SOL    HW151979   7.681   6.637   5.374  0.6834  0.8166  0.0838
16846SOL    HW251980   7.817   6.589   5.330  0.5022 -0.6990  1.1200
16847SOL     OW51981   4.008   3.972  12.038 -0.2711 -0.0084  0.1991
16847SOL    HW151982   3.996   3.953  11.945  2.8726  0.2661 -0.3926
16847SOL    HW251983   4.103   3.968  12.051 -0.6275 -1.2091  3.6779
16848SOL     OW51984   1.274   7.682   9.552 -0.2635  0.0533  0.3823
16848SOL    HW151985   1.316   7.627   9.485 -1.2614  0.3429 -0.4971
16848SOL    HW251986   1.341   7.745   9.576  0.8932 -1.4635  1.3617
16849SOL     OW51987   6.813   0.864  11.547 -0.2989  0.2085 -0.4214
16849SOL    HW151988   6.775   0.780  11.572 -0.5586  1.0326  2.3910
16849SOL    HW251989   6.905   0.846  11.533 -0.5368 -0.7180 -0.8217
16850SOL     OW51990   1.317   2.486   1.250  0.4657  0.2435 -0.0745
16850SOL    HW151991   1.351   2.397   1.241  0.1655  0.1668 -0.4564
16850SOL    HW251992   1.222   2.476   1.254  0.4530  0.5075  0.4144
16851SOL     OW51993   2.016   7.170   1.249  0.1667 -0.5501  0.4203
16851SOL    HW151994   2.027   7.075   1.255 -0.6591 -0.6663  0.1211
16851SOL    HW251995   1.959   7.192   1.323 -0.4908 -0.4322 -0.1133
16852SOL     OW51996   4.784   6.750   2.564  0.3287 -0.3161 -0.3637
16852SOL    HW151997   4.759   6.735   2.473 -1.3458 -2.1130  0.3375
16852SOL    HW251998   4.857   6.690   2.580  1.4042  0.8349 -0.8097
16853SOL     OW51999   6.570   4.526   5.762  0.1222 -0.2271  0.2657
16853SOL    HW152000   6.624   4.450   5.742 -0.2676  0.0172 -1.9694
16853SOL    HW252001   6.631   4.600   5.764 -0.0364  0.1127 -2.6614
16854SOL     OW52002   7.726   6.327  11.098 -0.1177  0.4376  0.4253
16854SOL    HW152003   7.749   6.388  11.169 -0.1458  0.4918  0.3877
16854SOL    HW252004   7.678   6.381  11.035 -2.2561 -0.1107  1.4987
16855SOL     OW52005   5.565   5.842   9.937 -0.3117 -0.5502 -0.1827
16855SOL    HW152006   5.531   5.906   9.875  0.1328  1.2479  1.3291
16855SOL    HW252007   5.500   5.773   9.939 -0.1671 -0.8471 -2.8727
16856SOL     OW52008   0.783   6.454   3.660  0.7004  0.2230  0.3785
16856SOL    HW152009   0.719   6.398   3.703  0.0626 -0.4115 -1.3037
16856SOL    HW252010   0.868   6.421   3.688  0.3934 -2.5662 -1.6018
16857SOL     OW52011   5.808   7.303  10.831 -0.0629  0.2271 -0.1989
16857SOL    HW152012   5.840   7.387  10.800  0.9992  0.1411  0.6015
16857SOL    HW252013   5.716   7.301  10.805  0.1093  1.2785 -0.9440
16858SOL     OW52014   7.460   6.384   5.861 -0.0831 -0.1235  0.7001
16858SOL    HW152015   7.394   6.316   5.871  0.7531 -1.0784 -0.0155
16858SOL    HW252016   7.541   6.336   5.843  0.0356  1.0607 -2.6761
16859SOL     OW52017   1.987   7.250   4.355 -0.2687  0.2036 -0.6022
16859SOL    HW152018   1.957   7.167   4.318 -2.0730  0.6279 -0.1397
16859SOL    HW252019   2.001   7.307   4.279 -0.2530 -0.1133 -0.8396
16860SOL     OW52020   4.678   4.375  11.755 -0.0542  0.0723 -0.2371
16860SOL    HW152021   4.595   4.415  11.779  0.4739  0.6049  0.7793
16860SOL    HW252022   4.730   4.377  11.835  1.2457  0.5325 -1.0544
16861SOL     OW52023   2.297   5.066  12.045 -0.4348 -0.1598 -0.1160
16861SOL    HW152024   2.329   5.034  11.961  0.1035 -2.4553  0.8897
16861SOL    HW252025   2.331   5.004  12.109 -0.4932  1.7432  1.8800
16862SOL     OW52026   7.235   0.194   9.581  0.3714 -0.4197 -0.2988
16862SOL    HW152027   7.300   0.243   9.531 -0.5331  0.9760 -0.1363
16862SOL    HW252028   7.165   0.176   9.517  0.4247 -0.9800 -0.2033
16863SOL     OW52029   6.418   1.048   2.885 -0.0647 -0.4215  0.3702
16863SOL    HW152030   6.373   1.034   2.802 -0.0812  0.8528  0.1351
16863SOL    HW252031   6.348   1.069   2.947 -0.0421 -1.2511  0.6917
16864SOL     OW52032   5.614   5.565   2.725  0.1074 -0.7367 -0.1584
16864SOL    HW152033   5.701   5.565   2.765  0.1933 -0.5377 -0.3453
16864SOL    HW252034   5.589   5.473   2.721  0.0872 -0.7624  0.3815
16865SOL     OW52035   7.951   0.725   4.603 -0.3169  0.0560  0.4814
16865SOL    HW152036   8.023   0.667   4.627  1.1608  1.1183 -1.0836
16865SOL    HW252037   7.892   0.671   4.551 -0.2345 -0.6291  1.0904
16866SOL     OW52038   3.867   1.873   2.094 -0.0025  0.5506  0.2882
16866SOL    HW152039   3.927   1.810   2.054 -0.8210  0.8489 -1.5411
16866SOL    HW252040   3.843   1.834   2.178  0.7078 -0.8231 -0.1177
16867SOL     OW52041   6.709   2.718   1.983 -0.0115  0.2857  0.1760
16867SOL    HW152042   6.800   2.690   1.969 -0.2258  0.4040 -1.6666
16867SOL    HW252043   6.667   2.641   2.022  0.9860  0.4215  1.6017
16868SOL     OW52044   6.898   6.127  10.996  0.3930 -0.2021 -0.2925
16868SOL    HW152045   6.900   6.174  11.080  2.5485 -1.2858  0.3412
16868SOL    HW252046   6.839   6.054  11.011  1.9043 -1.2568  0.8548
16869SOL     OW52047   3.269   0.815   5.156 -0.6905  0.0230  0.2684
16869SOL    HW152048   3.231   0.742   5.108  0.1274  0.5611 -1.2865
16869SOL    HW252049   3.353   0.781   5.189 -0.0047  0.4010 -1.0078
16870SOL     OW52050   5.373   1.380   1.591 -0.0162 -0.0861 -0.0657
16870SOL    HW152051   5.360   1.468   1.556  0.1843 -0.0683 -0.0950
16870SOL    HW252052   5.316   1.325   1.537  1.2986 -0.2662 -1.3471
16871SOL     OW52053   7.671   4.199   7.215 -0.5251 -0.0923 -0.1815
16871SOL    HW152054   7.715   4.202   7.300 -1.0534 -0.5361  0.1146
16871SOL    HW252055   7.741   4.217   7.152 -0.2999  1.1337  0.3822
16872SOL     OW52056   5.287   2.159   2.942 -0.3950  0.1104  0.1927
16872SOL    HW152057   5.266   2.236   2.996 -1.8499 -1.8441  2.6595
16872SOL    HW252058   5.203   2.131   2.906  0.0576 -0.5334 -0.3901
16873SOL     OW52059   1.676   4.759   2.878  0.2451  0.3400  0.1974
16873SOL    HW152060   1.765   4.788   2.859  0.1808  0.6334  0.3310
16873SOL    HW252061   1.652   4.705   2.803  0.1771  1.0728 -0.3304
16874SOL     OW52062   5.779   4.023   7.377 -0.2940  0.4243  0.1389
16874SOL    HW152063   5.796   3.940   7.333  0.3065 -0.7703  2.4469
16874SOL    HW252064   5.684   4.036   7.370 -0.0857  1.0505 -2.6385
16875SOL     OW52065   7.006   1.585  11.059 -0.0270 -0.0061 -0.0075
16875SOL    HW152066   7.038   1.495  11.057  2.2523  0.7112  1.1101
16875SOL    HW252067   6.959   1.592  11.143  1.4903  0.3180  0.8564
16876SOL     OW52068   4.165   2.370  10.168 -0.7053  0.0629 -0.2802
16876SOL    HW152069   4.233   2.396  10.106  0.3429 -0.0969  0.7660
16876SOL    HW252070   4.151   2.277  10.151 -0.6925  0.1052 -0.5268
16877SOL     OW52071   3.044   2.066   5.899  0.6618 -0.7753  0.2685
16877SOL    HW152072   3.089   2.139   5.942  1.6034 -2.2058  1.8099
16877SOL    HW252073   3.108   2.032   5.836 -0.0569  0.1484 -1.0317
16878SOL     OW52074   6.451   0.426   1.602 -0.0560 -0.3409  0.2911
16878SOL    HW152075   6.386   0.495   1.618  0.3754  0.3005 -0.6104
16878SOL    HW252076   6.434   0.398   1.512 -0.2870 -1.5033  0.6742
16879SOL     OW52077   5.486   5.089  10.640  0.1490 -0.1064 -0.2104
16879SOL    HW152078   5.532   5.008  10.659 -0.5491 -0.1201  1.6007
16879SOL    HW252079   5.455   5.120  10.725  0.3886  2.0574 -0.8517
16880SOL     OW52080   1.639   6.435  11.446  0.0097 -0.2152  0.4262
16880SOL    HW152081   1.595   6.351  11.434 -1.1724  0.3458  0.6791
16880SOL    HW252082   1.571   6.493  11.480  1.1628  0.4710  1.6556
16881SOL     OW52083   4.569   6.570   5.389  0.5477  0.3478 -0.2360
16881SOL    HW152084   4.493   6.593   5.442  0.2959 -1.6096  0.3453
16881SOL    HW252085   4.644   6.596   5.441  0.2974 -1.2417  1.0158
16882SOL     OW52086   4.094   1.262   1.428  0.5577 -0.2642 -0.2546
16882SOL    HW152087   4.149   1.255   1.350 -0.1181 -2.2791 -0.6177
16882SOL    HW252088   4.089   1.172   1.461  0.0899  0.4049  1.6146
16883SOL     OW52089   7.461   3.024  11.359  0.8597  0.1501  0.2207
16883SOL    HW152090   7.543   2.975  11.353  1.5706  1.1973  0.9068
16883SOL    HW252091   7.411   2.979  11.427  1.3524  0.1446  0.5923
16884SOL     OW52092   6.273   6.139  11.823 -0.8064  0.2889  0.1273
16884SOL    HW152093   6.202   6.096  11.776 -0.9317  1.3220 -0.6599
16884SOL    HW252094   6.273   6.098  11.909 -3.4452  1.3842  0.7336
16885SOL     OW52095   7.741   0.369   7.944  0.4281 -0.0589 -0.2036
16885SOL    HW152096   7.823   0.396   7.985  0.2712  0.1908 -0.0511
16885SOL    HW252097   7.673   0.400   8.004  0.2468 -0.8943  0.0336
16886SOL     OW52098   7.677   0.818   7.966  0.6579 -0.5275  0.1450
16886SOL    HW152099   7.648   0.826   7.875 -0.7783 -0.4236  0.5933
16886SOL    HW252100   7.742   0.888   7.976 -0.2442  0.4137 -0.3975
16887SOL     OW52101   2.144   4.340   5.249 -0.2958  0.5840  0.1441
16887SOL    HW152102   2.174   4.387   5.171 -0.0397  0.1072 -0.0502
16887SOL    HW252103   2.197   4.375   5.320  1.8146 -1.2281 -0.4016
16888SOL     OW52104   2.592   2.587   7.076 -0.1098  0.1264  0.2602
16888SOL    HW152105   2.668   2.542   7.113  0.4663  1.5981  0.9467
16888SOL    HW252106   2.611   2.596   6.983  1.1546  1.5123  0.6044
16889SOL     OW52107   0.477   2.766   9.479 -0.1237 -0.7029 -0.1672
16889SOL    HW152108   0.557   2.771   9.531 -1.6476 -0.5245  2.3030
16889SOL    HW252109   0.493   2.826   9.406  2.1078 -0.9765  0.0248
16890SOL     OW52110   0.732   5.733   2.188 -0.3434  0.0978  0.4910
16890SOL    HW152111   0.772   5.716   2.102  0.1671 -1.4338  1.0007
16890SOL    HW252112   0.798   5.783   2.236 -0.6585  1.0217 -0.0209
16891SOL     OW52113   1.324   3.263   4.912 -0.1035 -0.0220 -0.2406
16891SOL    HW152114   1.254   3.329   4.906  2.0216  2.4887  0.4278
16891SOL    HW252115   1.369   3.268   4.828 -0.0943 -0.8716 -0.2895
16892SOL     OW52116   0.533   7.103  10.119  0.0980 -0.4528  0.0549
16892SOL    HW152117   0.460   7.140  10.069  0.4114  0.2328  0.1068
16892SOL    HW252118   0.560   7.026  10.067 -0.3893 -0.4712 -0.1772
16893SOL     OW52119   1.303   3.595   4.510 -0.4014 -0.2190  0.4017
16893SOL    HW152120   1.354   3.672   4.483  0.9519  0.1544  3.5785
16893SOL    HW252121   1.364   3.522   4.500 -0.1730 -0.1952  1.4975
16894SOL     OW52122   2.259   3.585  11.603 -0.0489 -0.1670 -0.1855
16894SOL    HW152123   2.264   3.495  11.635  1.7686 -0.5771 -1.4498
16894SOL    HW252124   2.201   3.580  11.527 -3.0101  0.4990  1.8899
16895SOL     OW52125   3.980   0.093   2.463 -0.6382 -0.0539 -0.6057
16895SOL    HW152126   3.984   0.143   2.545 -1.5894  0.4267 -0.8406
16895SOL    HW252127   4.071   0.079   2.439 -0.3512  1.3313 -0.3833
16896SOL     OW52128   1.336   5.159   8.107 -0.2245 -0.1475 -0.3048
16896SOL    HW152129   1.418   5.130   8.148 -0.3584  0.7349  0.6059
16896SOL    HW252130   1.362   5.230   8.049 -0.5064  1.0760  1.0313
16897SOL     OW52131   0.234   5.041   6.752  0.5001  0.1918  0.6073
16897SOL    HW152132   0.176   5.107   6.790  0.4900  0.8229 -0.4561
16897SOL    HW252133   0.246   4.976   6.821 -2.5632 -0.6746  0.4545
16898SOL     OW52134   6.796   5.442   6.933 -0.1349 -0.1927 -0.8858
16898SOL    HW152135   6.718   5.387   6.943  0.4892 -1.0802 -0.7725
16898SOL    HW252136   6.818   5.469   7.022 -1.6761  2.0666 -1.0998
16899SOL     OW52137   2.882   6.641   0.161 -0.2260 -0.4535  0.2642
16899SOL    HW152138   2.791   6.646   0.189 -0.0386 -0.2060  0.8334
16899SOL    HW252139   2.933   6.647   0.242  0.3149  0.2950 -0.1152
16900SOL     OW52140   1.127   0.121   6.775 -0.3345  0.2241 -0.1156
16900SOL    HW152141   1.115   0.062   6.700 -1.0479 -1.7900  1.5057
16900SOL    HW252142   1.195   0.182   6.746  1.3652 -2.1464 -1.4760
16901SOL     OW52143   6.308   5.008   4.322  0.4577 -0.1148  0.1572
16901SOL    HW152144   6.385   4.965   4.359 -0.2138 -0.7476  0.8439
16901SOL    HW252145   6.284   5.075   4.387 -0.2851 -0.7335  0.5377
16902SOL     OW52146   6.181   4.886   2.497  0.4642  0.1281  0.2658
16902SOL    HW152147   6.223   4.841   2.570  1.9459  1.2920  0.1748
16902SOL    HW252148   6.221   4.848   2.419 -0.8268 -0.8306  0.0429
16903SOL     OW52149   2.153   6.521  10.197 -0.0876  0.4022  1.0354
16903SOL    HW152150   2.164   6.615  10.208  1.0884  0.2858  0.9794
16903SOL    HW252151   2.117   6.490  10.280  0.6876  0.7404  1.5116
16904SOL     OW52152   4.909   5.471   8.726  0.6390 -0.2090  0.0261
16904SOL    HW152153   4.821   5.444   8.751  0.1959  2.1975  1.3845
16904SOL    HW252154   4.965   5.398   8.752 -1.0246 -2.5618 -2.4503
16905SOL     OW52155   7.175   6.302  11.284 -0.1817  0.3880 -0.5930
16905SOL    HW152156   7.121   6.303  11.363 -0.4878 -1.2084 -0.7545
16905SOL    HW252157   7.185   6.395  11.261  2.3456  1.1920  2.9165
16906SOL     OW52158   2.930   1.199   6.683  0.4792  0.6479  0.4383
16906SOL    HW152159   2.922   1.255   6.606  0.8367 -0.3810 -0.3691
16906SOL    HW252160   3.012   1.226   6.724  2.0759 -1.0038 -1.4399
16907SOL     OW52161   0.023   3.385   8.873  0.4589  0.4625 -0.4210
16907SOL    HW152162   0.052   3.446   8.940  0.9589 -1.3990  1.1494
16907SOL    HW252163   0.102   3.335   8.850  0.0389  0.2809 -1.5607
16908SOL     OW52164   1.040   0.706   0.953 -0.2775 -0.2043 -0.0461
16908SOL    HW152165   0.945   0.718   0.946 -0.6864 -1.5524  2.1509
16908SOL    HW252166   1.072   0.788   0.990 -1.0216 -0.7166  1.8237
16909SOL     OW52167   4.101   2.943   1.709  0.2837  0.2191  0.0220
16909SOL    HW152168   4.053   2.922   1.629  0.6182 -1.4345  0.2118
16909SOL    HW252169   4.046   2.909   1.779  0.4944  0.7062  0.4306
16910SOL     OW52170   5.363   3.626   1.827 -0.2774 -0.1468  0.1079
16910SOL    HW152171   5.413   3.648   1.748  0.6638 -1.4512  0.3156
16910SOL    HW252172   5.427   3.631   1.898 -1.2306  1.5448  0.9101
16911SOL     OW52173   3.993   6.096   5.739  0.5030  0.2919  0.5693
16911SOL    HW152174   3.907   6.052   5.742 -0.1273  1.3825 -0.6168
16911SOL    HW252175   4.003   6.122   5.648  2.0305  0.3600  0.7335
16912SOL     OW52176   5.535   2.765   9.795 -0.3344 -0.0453 -0.5499
16912SOL    HW152177   5.516   2.770   9.701  0.3483 -1.4268 -0.7922
16912SOL    HW252178   5.482   2.692   9.826  0.7428 -0.7155 -0.2357
16913SOL     OW52179   2.888   1.269   0.089 -0.2217 -0.2292  0.3554
16913SOL    HW152180   2.862   1.317   0.010 -0.5977  0.9160  1.1599
16913SOL    HW252181   2.809   1.224   0.117 -0.0258 -0.8394 -0.0409
16914SOL     OW52182   0.814   4.385   0.729  0.3468 -0.1761 -0.1350
16914SOL    HW152183   0.887   4.323   0.728 -0.9336 -1.7757  0.8215
16914SOL    HW252184   0.755   4.354   0.661 -0.8328 -0.7411  1.0826
16915SOL     OW52185   0.898   3.063   4.183 -0.5637  0.3055  0.1151
16915SOL    HW152186   0.879   3.139   4.237  2.0567  1.7025 -0.7666
16915SOL    HW252187   0.907   3.098   4.094 -0.7811 -1.2965 -0.5888
16916SOL     OW52188   1.617   4.509  12.069  0.4277  0.0653  0.5757
16916SOL    HW152189   1.586   4.452  12.140  0.3887 -2.0105 -1.0176
16916SOL    HW252190   1.697   4.466  12.037 -0.4660 -0.0343 -1.7176
16917SOL     OW52191   7.517   5.945   9.607  0.0625  0.1387 -0.1507
16917SOL    HW152192   7.547   5.870   9.556 -0.9701  0.1220 -0.7604
16917SOL    HW252193   7.535   6.021   9.552 -1.2497  0.1026 -0.6657
16918SOL     OW52194   5.945   3.126   2.064 -0.0621 -0.5886 -0.0627
16918SOL    HW152195   5.911   3.043   2.098 -2.1616 -0.1067 -0.8628
16918SOL    HW252196   5.894   3.193   2.110  1.1824  0.2668  0.1165
16919SOL     OW52197   7.448   7.397  12.365  0.1143  0.5129  0.0015
16919SOL    HW152198   7.426   7.367  12.453 -1.7186  1.4223 -0.0966
16919SOL    HW252199   7.437   7.320  12.310  0.6803  0.0886  0.4724
16920SOL     OW52200   3.366   3.407  10.169  0.1181 -0.1240 -0.2585
16920SOL    HW152201   3.435   3.344  10.187  0.3923  0.3690  0.4520
16920SOL    HW252202   3.379   3.431  10.077  1.5648  0.7532  0.1390
16921SOL     OW52203   2.697   4.765   1.130  0.2668  0.0953 -0.3299
16921SOL    HW152204   2.768   4.734   1.074 -0.3574 -1.3815 -0.3590
16921SOL    HW252205   2.665   4.844   1.087  2.1141  1.0067 -0.1136
16922SOL     OW52206   1.058   4.552   6.406  0.3555  0.2051  0.2714
16922SOL    HW152207   1.114   4.488   6.362 -0.2460  0.4625 -0.9261
16922SOL    HW252208   1.116   4.627   6.423  1.0677 -0.6353  1.7084
16923SOL     OW52209   0.555   3.053   9.671 -0.3997  0.1485  0.5985
16923SOL    HW152210   0.462   3.061   9.691 -0.6689 -1.0800 -0.0692
16923SOL    HW252211   0.560   3.058   9.576 -0.0477 -1.8145  0.4651
16924SOL     OW52212   5.226   6.306   4.203  0.2868  0.1787 -0.4260
16924SOL    HW152213   5.233   6.398   4.230 -0.5407  1.1188 -3.0462
16924SOL    HW252214   5.142   6.277   4.240 -0.3964  1.1374 -1.1525
16925SOL     OW52215   0.426   0.984   4.572 -0.2364  0.2928 -0.0753
16925SOL    HW152216   0.354   0.924   4.553 -0.0473  0.0139  0.0794
16925SOL    HW252217   0.388   1.049   4.631 -0.8950  1.3145 -1.5810
16926SOL     OW52218   0.684   7.050   9.462 -0.0296  0.1818  0.0135
16926SOL    HW152219   0.768   7.066   9.504 -0.1368 -0.3742  0.4559
16926SOL    HW252220   0.632   7.129   9.479  1.1641  1.5595 -2.2528
16927SOL     OW52221   3.117   1.844   0.689 -0.3481 -0.3895  0.4669
16927SOL    HW152222   3.184   1.907   0.660  1.0559 -2.3961 -0.9559
16927SOL    HW252223   3.035   1.877   0.653  0.5579 -0.0042 -1.3464
16928SOL     OW52224   5.721   3.110  10.718 -0.3634 -0.0368 -0.2763
16928SOL    HW152225   5.697   3.066  10.800 -1.7025 -2.5684 -1.8813
16928SOL    HW252226   5.660   3.184  10.712  0.3402  0.7338  1.3584
16929SOL     OW52227   6.735   4.771  12.210  0.1037 -0.0328 -0.2539
16929SOL    HW152228   6.690   4.708  12.155 -0.0252  0.3192 -0.5580
16929SOL    HW252229   6.750   4.846  12.153 -1.6744  1.0902  0.6614
16930SOL     OW52230   0.478   1.622   6.587  0.3163 -0.3762  0.0431
16930SOL    HW152231   0.565   1.642   6.621  0.7165  0.1431 -1.2240
16930SOL    HW252232   0.453   1.700   6.538  0.1648 -1.3890 -1.5959
16931SOL     OW52233   2.725   6.472   0.826  0.4030  0.0777 -0.2763
16931SOL    HW152234   2.722   6.449   0.919  0.3034  0.1103 -0.2716
16931SOL    HW252235   2.752   6.392   0.782 -1.1395 -0.3919 -0.3902
16932SOL     OW52236   5.898   1.925  11.340  0.3153  0.0973 -0.3692
16932SOL    HW152237   5.927   1.915  11.430 -0.0637 -1.8263 -0.4259
16932SOL    HW252238   5.871   2.017  11.334  1.8057  0.6729  1.0093
16933SOL     OW52239   1.844   4.020   2.695  0.2079  0.0472  0.4751
16933SOL    HW152240   1.821   4.048   2.607 -0.8790  1.0607  1.0541
16933SOL    HW252241   1.928   3.976   2.685  1.3897  2.3786 -0.7068
16934SOL     OW52242   4.669   5.973   8.449 -0.3518 -0.0842 -0.6822
16934SOL    HW152243   4.688   5.930   8.532 -0.5650  1.9490  0.4820
16934SOL    HW252244   4.752   6.012   8.422 -0.2731 -0.7649 -1.4769
16935SOL     OW52245   2.517   2.002   1.513  0.1047  0.3164  0.0377
16935SOL    HW152246   2.601   2.012   1.559 -0.0375  1.2502  0.1186
16935SOL    HW252247   2.511   2.080   1.458 -2.2501  2.0738  2.5129
16936SOL     OW52248   0.887   0.264   1.325 -0.1145 -0.2694 -0.1231
16936SOL    HW152249   0.964   0.256   1.382 -0.1201 -2.7963 -0.3657
16936SOL    HW252250   0.827   0.321   1.374  0.9891 -0.1106  1.1134
16937SOL     OW52251   0.164   5.559   7.388 -0.4474 -0.1059 -0.2984
16937SOL    HW152252   0.095   5.613   7.349  1.4425  2.0989 -0.8057
16937SOL    HW252253   0.236   5.563   7.326  1.0983 -0.0984  1.4073
16938SOL     OW52254   2.956   6.876   4.284  0.3964  0.0281  0.0518
16938SOL    HW152255   2.879   6.832   4.319  0.2761 -0.5464 -0.9030
16938SOL    HW252256   3.011   6.893   4.361 -1.4503  2.1198  1.0308
16939SOL     OW52257   0.063   4.687  10.399 -0.1028 -0.0360 -0.3118
16939SOL    HW152258   0.139   4.716  10.348 -0.1859 -0.0113 -0.4220
16939SOL    HW252259   0.100   4.634  10.469  0.0218  0.0339 -0.3245
16940SOL     OW52260   2.815   0.234  10.363  0.8326 -0.3960  0.2388
16940SOL    HW152261   2.895   0.249  10.313  0.1261 -0.2711 -0.8864
16940SOL    HW252262   2.754   0.300  10.332  0.0241 -1.0099  0.4832
16941SOL     OW52263   2.802   0.689   6.474  0.3471 -0.7589 -0.5117
16941SOL    HW152264   2.722   0.684   6.526  0.2624 -0.4717 -0.6128
16941SOL    HW252265   2.773   0.672   6.384  0.1459  0.8240 -0.7809
16942SOL     OW52266   5.281   6.828   0.559 -0.0922  0.5181  0.7840
16942SOL    HW152267   5.283   6.913   0.603 -0.3741  1.2233 -0.4882
16942SOL    HW252268   5.204   6.784   0.593  0.1098  0.7342  1.5255
16943SOL     OW52269   7.962   1.813   4.271 -0.4974  0.0999  0.2662
16943SOL    HW152270   7.964   1.751   4.197 -0.2978 -1.0064  1.1693
16943SOL    HW252271   8.054   1.825   4.294 -0.5477  0.6117  0.2019
16944SOL     OW52272   6.718   4.007   7.846  0.4119 -0.1022  1.1392
16944SOL    HW152273   6.643   4.016   7.905  0.3547  1.3462  0.8707
16944SOL    HW252274   6.788   4.057   7.888  0.2348  1.3583 -0.2234
16945SOL     OW52275   4.784   6.967   8.703  0.1821 -0.1187  0.3674
16945SOL    HW152276   4.722   6.906   8.744 -0.8608  0.1448 -0.7636
16945SOL    HW252277   4.735   7.049   8.695  0.5128 -0.0237 -0.9208
16946SOL     OW52278   0.605   0.707   4.908 -0.3377 -0.1408 -0.4586
16946SOL    HW152279   0.698   0.687   4.919 -0.7151 -1.9441 -0.3029
16946SOL    HW252280   0.594   0.792   4.951  0.9860 -0.4820  0.6323
16947SOL     OW52281   3.079   1.634   4.086 -0.3778 -0.1670 -0.1765
16947SOL    HW152282   3.124   1.663   4.166  0.6691 -3.7311  0.7229
16947SOL    HW252283   3.150   1.614   4.025 -1.0306 -0.4662 -0.8479
16948SOL     OW52284   4.538   6.431  11.358 -0.4196 -0.4754 -0.0933
16948SOL    HW152285   4.477   6.481  11.413  0.3424 -0.4206  0.7275
16948SOL    HW252286   4.584   6.497  11.307 -0.3178 -0.4412  0.0440
16949SOL     OW52287   7.666   1.945   2.921 -0.3732  0.5196 -0.5195
16949SOL    HW152288   7.639   1.892   2.846 -0.2917  1.3042 -1.1147
16949SOL    HW252289   7.606   2.019   2.921  0.0879  0.8964 -0.2531
16950SOL     OW52290   1.524   1.694   1.263 -0.0415  0.2359  0.3210
16950SOL    HW152291   1.485   1.749   1.194 -1.0652 -1.6033 -0.6429
16950SOL    HW252292   1.462   1.701   1.336  1.2536  2.5238  1.3279
16951SOL     OW52293   6.848   3.116   5.976 -0.5847  0.0721 -0.3001
16951SOL    HW152294   6.905   3.040   5.984 -0.6044 -0.2593 -2.7240
16951SOL    HW252295   6.900   3.189   6.010 -0.1008 -0.7929  0.8741
16952SOL     OW52296   3.201   0.120  11.720  0.2357 -0.5038 -0.1069
16952SOL    HW152297   3.112   0.101  11.750  0.5181 -1.9572 -0.1098
16952SOL    HW252298   3.190   0.166  11.637 -0.5078 -0.0396  0.2364
16953SOL     OW52299   2.766   1.460   7.079  0.1396  0.4004 -0.1881
16953SOL    HW152300   2.750   1.366   7.088 -0.5432  0.3305 -1.8066
16953SOL    HW252301   2.760   1.494   7.168 -2.1384 -0.7103  0.1449
16954SOL     OW52302   3.040   5.072   4.585  0.4155  0.3857  0.2517
16954SOL    HW152303   3.108   5.054   4.520 -0.2952  1.7439 -0.9272
16954SOL    HW252304   3.086   5.112   4.658  0.8920  1.4289 -0.5922
16955SOL     OW52305   1.520   4.168  10.414  0.6134  0.9540  0.7269
16955SOL    HW152306   1.456   4.203  10.352 -0.5741 -0.3125  1.1867
16955SOL    HW252307   1.580   4.116  10.360 -1.0580 -1.0650  0.6716
16956SOL     OW52308   0.343   7.367   6.414  0.6775  0.7982  0.0899
16956SOL    HW152309   0.350   7.293   6.354  0.8966  0.2560  0.7780
16956SOL    HW252310   0.380   7.441   6.364  1.0613  0.3114 -0.3638
16957SOL     OW52311   6.341   7.134   3.274  0.6515 -0.0185 -0.3181
16957SOL    HW152312   6.370   7.079   3.347  2.4264  1.7641  0.4324
16957SOL    HW252313   6.375   7.221   3.295 -0.7351  1.0535 -2.1920
16958SOL     OW52314   1.824   5.679   0.728  0.3658 -0.3353  0.0632
16958SOL    HW152315   1.863   5.744   0.669 -2.3254  0.4240 -1.0430
16958SOL    HW252316   1.779   5.731   0.794 -1.5700 -1.0109 -0.6654
16959SOL     OW52317   0.525   2.133   9.242 -0.5467  0.8994  0.0995
16959SOL    HW152318   0.557   2.207   9.190  0.0964  0.7935  0.3348
16959SOL    HW252319   0.603   2.079   9.256 -0.8802  0.5261  0.4993
16960SOL     OW52320   0.715   0.325   4.939 -0.4379 -0.5087  0.2301
16960SOL    HW152321   0.795   0.307   4.890 -0.2242 -2.1945  1.1443
16960SOL    HW252322   0.645   0.321   4.875  0.2008  1.5823 -0.7050
16961SOL     OW52323   5.548   7.747   8.091 -0.4115 -0.5909  0.3011
16961SOL    HW152324   5.556   7.725   7.998  1.3061  1.0205 -0.0081
16961SOL    HW252325   5.586   7.673   8.137  0.1123 -0.7520 -0.3796
16962SOL     OW52326   3.912   3.774   0.330  0.2637  0.0367  0.3762
16962SOL    HW152327   3.841   3.723   0.291  0.1182  0.3267  0.2569
16962SOL    HW252328   3.883   3.792   0.419  0.2697  0.0004  0.3856
16963SOL     OW52329   7.272   6.213   5.868  0.0988  0.2120  0.0474
16963SOL    HW152330   7.256   6.141   5.806 -0.0376  0.2835 -0.0005
16963SOL    HW252331   7.185   6.251   5.883  0.3829  1.5662 -1.3840
16964SOL     OW52332   4.590   6.135   2.227 -0.4229 -0.2836 -0.1349
16964SOL    HW152333   4.679   6.118   2.198 -0.6407 -0.1616 -0.8886
16964SOL    HW252334   4.598   6.207   2.289  0.1033 -0.8601  0.4759
16965SOL     OW52335   7.676   7.626   7.002  0.5476 -0.0665  0.4491
16965SOL    HW152336   7.615   7.594   7.068  1.7255 -0.0447  1.6039
16965SOL    HW252337   7.735   7.552   6.987  0.5931  0.1007 -0.2033
16966SOL     OW52338   1.537   1.638  11.377  0.1790  0.1295 -0.4235
16966SOL    HW152339   1.596   1.649  11.303  1.4923  0.8306  0.6816
16966SOL    HW252340   1.562   1.707  11.439 -1.5757  0.2263  0.2462
16967SOL     OW52341   3.486   4.170   9.529 -0.0143 -0.0343  0.1763
16967SOL    HW152342   3.573   4.167   9.570  1.1774 -1.1703 -2.2084
16967SOL    HW252343   3.440   4.094   9.565  0.5672 -0.3252  0.3241
16968SOL     OW52344   7.878   4.083   7.734 -0.4515  0.1872  0.1053
16968SOL    HW152345   7.890   4.177   7.725 -0.2670  0.0556 -1.2868
16968SOL    HW252346   7.956   4.044   7.695 -0.6478 -0.5481  0.4124
16969SOL     OW52347   5.058   6.718   4.222 -0.8106  0.5190 -0.7967
16969SOL    HW152348   5.126   6.734   4.287 -1.4262  0.1957 -0.0620
16969SOL    HW252349   5.061   6.795   4.164 -0.3149  0.8444 -0.3426
16970SOL     OW52350   2.633   7.432   1.879  0.4086 -0.4948 -0.9013
16970SOL    HW152351   2.713   7.470   1.844  1.8287 -3.0734 -0.7199
16970SOL    HW252352   2.623   7.472   1.966 -0.1937  1.9678 -2.0020
16971SOL     OW52353   1.745   0.263   9.125  0.1889  0.6642  0.1855
16971SOL    HW152354   1.713   0.298   9.208  2.1320  1.1033  0.7974
16971SOL    HW252355   1.798   0.333   9.088 -1.1797  0.7154 -1.7952
16972SOL     OW52356   1.081   4.444   3.213  0.1115  0.0680  0.7420
16972SOL    HW152357   1.165   4.457   3.168 -0.0560 -0.0012  0.4041
16972SOL    HW252358   1.104   4.391   3.290  0.4304  0.3521  0.8459
16973SOL     OW52359   4.947   7.533   8.838 -0.2755  0.3026 -0.6102
16973SOL    HW152360   4.915   7.489   8.917  0.1871 -2.0588 -1.6545
16973SOL    HW252361   4.867   7.562   8.794 -0.5944  0.7062  0.2036
16974SOL     OW52362   5.165   1.003  11.849 -0.0891 -0.4414 -0.5808
16974SOL    HW152363   5.234   0.941  11.873  2.2898  2.0847 -0.3190
16974SOL    HW252364   5.212   1.077  11.811 -2.8166  0.9208 -1.5610
16975SOL     OW52365   0.099   7.555   8.925 -0.0464 -0.3642 -0.0370
16975SOL    HW152366   0.051   7.636   8.908  0.8596  0.0443 -0.7319
16975SOL    HW252367   0.160   7.577   8.995  1.8672  0.2899 -1.7971
16976SOL     OW52368   6.080   1.936   9.633 -0.1103 -0.4442  0.0355
16976SOL    HW152369   6.074   1.840   9.629  0.0620 -0.5010  1.0472
16976SOL    HW252370   5.989   1.965   9.634 -0.1637 -0.5859 -0.3586
16977SOL     OW52371   5.301   7.298   5.694  0.1399  0.3084 -0.0630
16977SOL    HW152372   5.319   7.214   5.736  0.2276  0.2059 -0.3039
16977SOL    HW252373   5.340   7.363   5.753 -0.1383  0.1969  0.2428
16978SOL     OW52374   7.210   0.543   5.971  0.0007 -0.5196  0.1795
16978SOL    HW152375   7.227   0.611   5.906  0.4596  0.8251  1.6424
16978SOL    HW252376   7.290   0.490   5.971  0.0444 -0.4599 -0.2607
16979SOL     OW52377   4.955   3.820   5.381 -0.0048 -0.1996 -0.1057
16979SOL    HW152378   5.003   3.737   5.380  1.9518  0.8497  0.7213
16979SOL    HW252379   5.000   3.875   5.317 -1.5692  0.1033 -0.9903
16980SOL     OW52380   5.144   7.608   9.361  0.1994 -0.2233 -0.5283
16980SOL    HW152381   5.160   7.577   9.450 -0.5441  1.2996  0.1780
16980SOL    HW252382   5.131   7.529   9.310 -1.7496 -1.1103  1.1935
16981SOL     OW52383   3.849   6.851   8.231 -0.1653 -0.0589 -0.4586
16981SOL    HW152384   3.846   6.826   8.323 -2.1709  0.1457 -0.4230
16981SOL    HW252385   3.757   6.854   8.204  0.4211 -1.5797 -2.8800
16982SOL     OW52386   1.275   4.254   8.516 -0.3580  0.2411  0.3088
16982SOL    HW152387   1.187   4.220   8.533 -0.8431  0.3620 -1.8042
16982SOL    HW252388   1.326   4.177   8.491 -0.0103  0.2723  0.8956
16983SOL     OW52389   5.788   3.614   6.319 -0.0107  0.2895  0.1624
16983SOL    HW152390   5.693   3.627   6.318  0.0152  0.4646 -0.9352
16983SOL    HW252391   5.815   3.641   6.407 -1.2824 -2.2228  1.4168
16984SOL     OW52392   7.468   4.610   8.052  0.1742  0.4798 -0.0424
16984SOL    HW152393   7.441   4.679   8.113 -1.7679 -0.3269  0.0821
16984SOL    HW252394   7.542   4.647   8.005 -0.3267  2.3545  0.5692
16985SOL     OW52395   7.501   4.501   2.561 -0.5819  0.1366 -0.0785
16985SOL    HW152396   7.510   4.593   2.585 -2.2840  0.4530 -0.5353
16985SOL    HW252397   7.459   4.461   2.637 -1.6337  0.1572 -0.6352
16986SOL     OW52398   7.478   7.547  11.459  0.0487  0.4758  0.0378
16986SOL    HW152399   7.387   7.519  11.467  0.4464 -1.3949 -1.3331
16986SOL    HW252400   7.529   7.466  11.468  1.4704  1.2083 -0.9706
16987SOL     OW52401   2.161   7.006   7.872 -0.0260 -0.5195 -0.6652
16987SOL    HW152402   2.068   6.985   7.880 -0.2117 -0.3071 -1.9612
16987SOL    HW252403   2.197   6.991   7.959 -1.3042 -0.4439 -0.1004
16988SOL     OW52404   3.396   6.278   1.403  0.3402  0.7506 -0.0761
16988SOL    HW152405   3.461   6.302   1.470  0.5509  4.1728 -1.3548
16988SOL    HW252406   3.323   6.338   1.418 -0.6834 -0.1155 -1.4053
16989SOL     OW52407   1.466   6.204   4.696 -0.2121 -0.3314  0.1440
16989SOL    HW152408   1.470   6.109   4.682 -0.0466 -0.5678  1.6101
16989SOL    HW252409   1.385   6.217   4.746 -0.6617  0.4236 -0.7284
16990SOL     OW52410   0.525   5.757   6.509 -0.6117  0.1072  0.2140
16990SOL    HW152411   0.541   5.748   6.415 -2.5936  0.1719 -0.1745
16990SOL    HW252412   0.557   5.845   6.530  2.6713 -0.9674  0.3246
16991SOL     OW52413   4.163   1.672   9.264 -0.3012 -0.5550 -0.0743
16991SOL    HW152414   4.182   1.758   9.226 -1.2767 -0.6717 -0.8938
16991SOL    HW252415   4.248   1.629   9.273  0.1369  0.2748 -0.2138
16992SOL     OW52416   5.312   5.252   8.029  0.1606  0.0616  0.5218
16992SOL    HW152417   5.285   5.161   8.022  0.0898  0.0060  1.4035
16992SOL    HW252418   5.380   5.252   8.096 -0.5299  0.7855  1.2501
16993SOL     OW52419   5.654   5.687   1.658 -0.2211 -0.3238 -0.2492
16993SOL    HW152420   5.571   5.726   1.686 -0.6179 -0.3534 -1.3519
16993SOL    HW252421   5.708   5.688   1.737 -0.8048  0.9142  0.1615
16994SOL     OW52422   2.519   3.412  12.312  0.1646  0.1989 -0.2757
16994SOL    HW152423   2.592   3.473  12.302  0.7652 -0.4762 -0.0596
16994SOL    HW252424   2.442   3.464  12.288  0.7818  0.7053 -1.2656
16995SOL     OW52425   0.628   1.620   9.737 -0.0955  0.0502  0.6546
16995SOL    HW152426   0.619   1.668   9.654  0.7864 -0.2363  0.3783
16995SOL    HW252427   0.554   1.649   9.790  0.8152  2.3299  0.7892
16996SOL     OW52428   6.652   2.901   5.464 -0.0804 -0.2586 -0.3427
16996SOL    HW152429   6.634   2.892   5.558 -0.6476 -1.7010 -0.5556
16996SOL    HW252430   6.668   2.994   5.451 -1.7376  0.2385  0.8884
16997SOL     OW52431   4.916   7.129   4.847  0.2170 -0.0641 -0.3436
16997SOL    HW152432   4.848   7.099   4.787 -0.7070  0.2892  0.5013
16997SOL    HW252433   4.903   7.223   4.853  0.0630 -0.1433  0.6889
16998SOL     OW52434   6.148   5.749   3.906  0.0109  0.4565  0.1521
16998SOL    HW152435   6.092   5.785   3.837 -0.0944 -0.6052 -0.3433
16998SOL    HW252436   6.107   5.665   3.927  1.7338 -0.6337 -0.6392
16999SOL     OW52437   1.044   1.246   8.624  0.0268 -0.0653  0.1916
16999SOL    HW152438   0.986   1.196   8.567 -0.2552 -0.2112  0.5984
16999SOL    HW252439   1.090   1.179   8.676  1.5366 -0.0207 -1.0319
17000SOL     OW52440   5.183   2.650   5.275 -0.3763 -0.5189  0.1188
17000SOL    HW152441   5.271   2.687   5.289 -0.8859  0.7358  0.1903
17000SOL    HW252442   5.171   2.589   5.348  0.5165 -0.8626 -0.0117
17001SOL     OW52443   5.494   1.271   8.659 -0.3121 -0.4593  0.2692
17001SOL    HW152444   5.485   1.300   8.569  0.6327  0.9162  0.5868
17001SOL    HW252445   5.404   1.257   8.689 -0.7324  0.7848 -0.3472
17002SOL     OW52446   4.047   3.423  10.077  0.3696  0.2965  0.0447
17002SOL    HW152447   4.075   3.353  10.137  0.1411 -0.8183 -1.1029
17002SOL    HW252448   3.956   3.402  10.057  0.8481 -0.2376 -1.8233
17003SOL     OW52449   0.942   5.831   9.930 -0.6037 -0.0987  0.1337
17003SOL    HW152450   0.903   5.890   9.994 -1.8491 -1.4485  0.6657
17003SOL    HW252451   0.923   5.744   9.963 -0.1917 -0.8192 -1.4451
17004SOL     OW52452   6.914   3.235   2.244 -0.3941 -0.2620  0.3708
17004SOL    HW152453   6.971   3.243   2.168 -1.2031  1.2623 -0.0998
17004SOL    HW252454   6.975   3.225   2.318  0.4305 -0.2966 -0.2930
17005SOL     OW52455   6.827   1.738   4.508  0.2108  0.2067 -0.0319
17005SOL    HW152456   6.754   1.795   4.486  0.9499  0.8398 -0.9183
17005SOL    HW252457   6.884   1.791   4.563 -0.0966 -0.3615  0.8542
17006SOL     OW52458   5.997   5.869  11.102  0.2590 -0.3555  0.3916
17006SOL    HW152459   6.065   5.931  11.126  0.1640  0.2867 -0.8915
17006SOL    HW252460   5.918   5.903  11.144 -0.1073  1.2951 -1.4616
17007SOL     OW52461   5.083   4.493   7.090  0.1806  0.1001 -0.1971
17007SOL    HW152462   5.024   4.419   7.103  0.7503 -1.0801 -3.4116
17007SOL    HW252463   5.154   4.479   7.153 -0.3298 -1.4264  0.0753
17008SOL     OW52464   5.484   0.941   8.839 -0.1929 -0.0950  0.4028
17008SOL    HW152465   5.459   0.878   8.906  1.0848  0.9368  1.9366
17008SOL    HW252466   5.461   1.026   8.876 -1.2534  0.4110 -1.3283
17009SOL     OW52467   3.594   6.579   8.645 -0.2828 -0.1515 -0.0633
17009SOL    HW152468   3.600   6.673   8.659 -1.1060 -0.2603  1.2025
17009SOL    HW252469   3.603   6.541   8.732 -1.1939 -1.1579 -0.3788
17010SOL     OW52470   1.774   7.296  10.601 -0.3092 -0.1058  0.1095
17010SOL    HW152471   1.717   7.239  10.549 -0.3586 -0.1951  0.2582
17010SOL    HW252472   1.806   7.239  10.671 -1.7002  0.4464  1.2609
17011SOL     OW52473   7.158   6.592   4.969 -0.0140  0.2146 -0.2080
17011SOL    HW152474   7.167   6.498   4.951 -1.3545 -0.2235  1.1655
17011SOL    HW252475   7.227   6.611   5.033  0.0199  0.0820 -0.2048
17012SOL     OW52476   3.533   3.290   0.551 -0.0342 -0.1544 -0.2131
17012SOL    HW152477   3.454   3.332   0.586  0.5196  0.4351  0.3645
17012SOL    HW252478   3.506   3.201   0.530 -0.7569 -0.0801  0.3626
17013SOL     OW52479   0.304   3.098  10.672 -0.1961 -0.4772  0.6438
17013SOL    HW152480   0.237   3.085  10.605 -0.1720 -2.1602  0.9010
17013SOL    HW252481   0.257   3.090  10.755  0.0275  0.1110  0.8317
17014SOL     OW52482   7.426   6.541   3.807  0.2522  0.2637  0.5203
17014SOL    HW152483   7.490   6.608   3.830  0.1355  0.4753  0.2306
17014SOL    HW252484   7.476   6.460   3.802  0.0077 -0.1916  3.4124
17015SOL     OW52485   6.888   0.399   1.396 -0.4242  0.2687  0.0150
17015SOL    HW152486   6.960   0.382   1.335 -1.4304  1.7248 -1.7043
17015SOL    HW252487   6.929   0.440   1.472  0.8262 -1.1921  0.1695
17016SOL     OW52488   3.979   6.351   4.714  0.4017  0.0961 -0.0372
17016SOL    HW152489   4.029   6.369   4.793 -0.0860 -2.5095  0.9780
17016SOL    HW252490   4.045   6.323   4.650  0.7136  1.4669 -0.3406
17017SOL     OW52491   5.048   7.095   6.392  0.2476  0.8253  0.2446
17017SOL    HW152492   5.027   7.188   6.378  0.0633  0.8960  0.9635
17017SOL    HW252493   5.143   7.093   6.403  0.1661  1.0453  1.0556
17018SOL     OW52494   2.452   3.817  12.033  0.3970  0.3460  0.4524
17018SOL    HW152495   2.433   3.742  12.089  0.5634  0.9628  1.3710
17018SOL    HW252496   2.536   3.850  12.065 -0.2614  1.6618  0.9210
17019SOL     OW52497   2.030   0.477   5.520  0.3506  0.6237 -0.0365
17019SOL    HW152498   1.988   0.488   5.435 -1.2049  0.1609  0.6454
17019SOL    HW252499   1.968   0.515   5.583  1.6635  1.3627  0.8653
17020SOL     OW52500   6.151   3.863   2.030  0.0731  0.0856  0.5443
17020SOL    HW152501   6.091   3.788   2.035  0.1255  0.0587  0.7891
17020SOL    HW252502   6.149   3.901   2.118  0.6682 -0.1115  0.6509
17021SOL     OW52503   2.290   5.236   8.097  0.1797 -0.1536  0.0722
17021SOL    HW152504   2.328   5.188   8.024  0.1328  0.9527 -0.6937
17021SOL    HW252505   2.196   5.225   8.087  0.1978 -1.3954  0.9507
17022SOL     OW52506   0.614   1.455   2.537  0.8602  0.5139  0.0688
17022SOL    HW152507   0.643   1.543   2.511  1.4264  0.6081  0.9695
17022SOL    HW252508   0.596   1.462   2.631  1.6136 -0.4963  0.3091
17023SOL     OW52509   1.018   5.167   3.502  0.1794  0.3676  0.1409
17023SOL    HW152510   1.057   5.082   3.480 -0.7904  0.0723 -0.5033
17023SOL    HW252511   1.026   5.174   3.597 -1.7099 -1.4682  0.5152
17024SOL     OW52512   5.451   4.261   1.455 -0.2906  0.0122 -0.5413
17024SOL    HW152513   5.494   4.347   1.455 -1.2757  0.5172 -0.5143
17024SOL    HW252514   5.386   4.266   1.384 -2.1643  0.2347  1.1090
17025SOL     OW52515   1.815   6.576   4.585 -0.8526  0.0514  0.1032
17025SOL    HW152516   1.894   6.613   4.545  0.0528 -0.8575  1.0043
17025SOL    HW252517   1.767   6.652   4.618  1.4161  0.4670  2.7598
17026SOL     OW52518   3.419   1.043   1.517  0.1814 -0.2554  0.0183
17026SOL    HW152519   3.396   0.952   1.499 -2.8209  0.3985 -0.0785
17026SOL    HW252520   3.440   1.080   1.432 -2.3139 -0.0385 -0.5869
17027SOL     OW52521   2.497   7.066   0.940  0.5846 -0.1211  0.6114
17027SOL    HW152522   2.551   7.136   0.903  0.4866 -1.0537 -1.4356
17027SOL    HW252523   2.498   6.998   0.874 -3.2695 -0.1390  0.3472
17028SOL     OW52524   0.500   7.555   3.251  0.1444  0.3425  0.1974
17028SOL    HW152525   0.441   7.612   3.300 -0.3331  0.3614 -0.3940
17028SOL    HW252526   0.464   7.554   3.162  2.4203  2.3690 -0.8487
17029SOL     OW52527   0.144   6.396   0.054 -0.4570  0.4636 -0.4130
17029SOL    HW152528   0.225   6.442   0.077  1.8364 -2.7096 -1.3141
17029SOL    HW252529   0.088   6.405   0.131  1.7332  0.8529  1.2449
17030SOL     OW52530   2.686   2.627  10.576  0.5507 -0.1404  0.1810
17030SOL    HW152531   2.718   2.560  10.515  0.2380  0.3057 -0.4862
17030SOL    HW252532   2.727   2.605  10.660  2.3228  0.1811 -0.5497
17031SOL     OW52533   7.784   4.466   6.400 -0.2743  0.2488  0.1576
17031SOL    HW152534   7.775   4.384   6.353 -1.3682 -0.3855  1.4373
17031SOL    HW252535   7.695   4.501   6.406  0.0636  1.0971  0.3757
17032SOL     OW52536   4.021   0.209   3.937  0.0182  0.0671 -0.3871
17032SOL    HW152537   4.010   0.205   3.842  1.4435 -0.6888 -0.5514
17032SOL    HW252538   4.108   0.171   3.952 -0.4845 -0.5050  1.2758
17033SOL     OW52539   2.279   0.928   8.575  0.6175  0.4003  0.4548
17033SOL    HW152540   2.214   0.997   8.566  1.7546  1.4190 -0.3208
17033SOL    HW252541   2.288   0.892   8.487  0.3526 -0.4553  0.7669
17034SOL     OW52542   7.256   2.115   7.195  0.3826  0.1744  0.4057
17034SOL    HW152543   7.296   2.187   7.146  0.4337 -1.4444 -2.0653
17034SOL    HW252544   7.330   2.072   7.238  0.6082  0.3118  0.1572
17035SOL     OW52545   1.944   5.033   0.250  0.2107  0.2895 -0.2669
17035SOL    HW152546   1.867   5.000   0.296  0.7071  0.5509  0.7730
17035SOL    HW252547   2.008   4.962   0.256  0.4912  0.5604  0.0010
17036SOL     OW52548   0.113   7.442   4.562  0.5634  0.0315  0.0604
17036SOL    HW152549   0.112   7.528   4.519  1.0943  0.7747  1.4668
17036SOL    HW252550   0.020   7.422   4.575  0.4105  0.0303 -0.9421
17037SOL     OW52551   7.179   6.865  10.713 -0.0022  0.5040 -0.4297
17037SOL    HW152552   7.102   6.826  10.671 -1.4641  3.3926 -0.6589
17037SOL    HW252553   7.253   6.822  10.670 -1.4527 -1.1251 -1.4525
17038SOL     OW52554   4.287   4.809  10.826  0.7815  0.6713 -0.2401
17038SOL    HW152555   4.380   4.825  10.808  1.1455  0.6242  1.4186
17038SOL    HW252556   4.286   4.773  10.915 -0.6704 -1.1622 -0.9248
17039SOL     OW52557   5.457   4.975   4.409 -0.1152 -0.1688  0.6929
17039SOL    HW152558   5.523   4.916   4.374 -1.6803 -2.4213  1.2952
17039SOL    HW252559   5.505   5.035   4.466  1.5281 -0.9500  0.1770
17040SOL     OW52560   4.891   5.213   1.232  0.4478 -0.1457 -0.2910
17040SOL    HW152561   4.878   5.287   1.291  2.6276 -1.7853  2.5054
17040SOL    HW252562   4.802   5.183   1.211 -0.4541  0.3579  2.4531
17041SOL     OW52563   4.188   5.534  11.605 -0.2768  0.1048 -0.1666
17041SOL    HW152564   4.136   5.615  11.607  2.3894  1.9448  0.2736
17041SOL    HW252565   4.197   5.510  11.697  1.9897  1.5159  0.0499
17042SOL     OW52566   6.525   1.586   2.086  0.1786  0.1622  0.1829
17042SOL    HW152567   6.459   1.563   2.151 -3.0002  2.9303 -1.7829
17042SOL    HW252568   6.590   1.637   2.135  1.3759 -3.0572  2.2577
17043SOL     OW52569   4.683   4.348  10.108  1.0041 -0.0019 -0.8302
17043SOL    HW152570   4.616   4.413  10.129  0.8239 -0.6138  0.6061
17043SOL    HW252571   4.634   4.266  10.094  1.4000 -0.3523 -0.2188
17044SOL     OW52572   1.771   4.153   7.342  0.0613  0.6503  0.3288
17044SOL    HW152573   1.722   4.198   7.410 -0.9605  2.1974 -1.3529
17044SOL    HW252574   1.757   4.205   7.263  1.1054 -1.1257 -1.1187
17045SOL     OW52575   0.940   3.356   5.746  0.2888  0.5555  0.2264
17045SOL    HW152576   0.938   3.265   5.716 -0.9844  0.2064  1.2814
17045SOL    HW252577   1.010   3.359   5.811  1.1802  0.6488 -0.7175
17046SOL     OW52578   6.430   6.536   1.506  0.2242 -0.0676  0.1294
17046SOL    HW152579   6.371   6.461   1.512  0.4027 -0.3951 -1.6763
17046SOL    HW252580   6.402   6.595   1.576 -0.3444 -1.5103  1.1525
17047SOL     OW52581   0.890   2.441   5.900  0.8009 -0.1126  0.5509
17047SOL    HW152582   0.930   2.512   5.850 -2.8652  0.3510 -2.0941
17047SOL    HW252583   0.921   2.361   5.857 -1.0466  0.2493 -1.6648
17048SOL     OW52584   3.593   2.421   9.949 -0.0998  0.0427  0.2123
17048SOL    HW152585   3.570   2.505   9.989  0.8897 -0.4684  1.9328
17048SOL    HW252586   3.511   2.389   9.912 -0.5693  1.5928 -0.1743
17049SOL     OW52587   3.679   7.659   3.373 -0.0669 -0.1238  0.2138
17049SOL    HW152588   3.746   7.701   3.320 -0.4919 -1.0890 -1.1573
17049SOL    HW252589   3.634   7.730   3.419  0.5117  0.7041 -0.4999
17050SOL     OW52590   4.176   6.348  10.736 -0.3436 -0.0470 -0.1548
17050SOL    HW152591   4.105   6.339  10.800  0.0503 -0.1749  0.2709
17050SOL    HW252592   4.151   6.423  10.683 -1.2662 -0.6602 -0.6150
17051SOL     OW52593   1.678   2.749   9.351 -0.2562  0.3134  0.2100
17051SOL    HW152594   1.615   2.784   9.415 -0.0126  2.2504 -0.5256
17051SOL    HW252595   1.636   2.762   9.267 -0.3937 -1.8313 -0.0997
17052SOL     OW52596   5.990   7.308   5.103 -0.2991  0.3445 -1.0445
17052SOL    HW152597   6.057   7.368   5.071 -0.2093  1.2353  0.7166
17052SOL    HW252598   6.037   7.226   5.121  0.3411  0.9448  0.1194
17053SOL     OW52599   5.484   2.886   5.910 -0.0934  0.5590  0.2157
17053SOL    HW152600   5.420   2.816   5.922 -0.9069  0.7774 -2.2280
17053SOL    HW252601   5.438   2.951   5.857  1.9405  0.9788 -1.1483
17054SOL     OW52602   4.345   5.461   6.337 -0.3809  0.3385  0.3102
17054SOL    HW152603   4.281   5.393   6.354 -0.6554 -0.1668 -2.3142
17054SOL    HW252604   4.319   5.498   6.253  1.0705  2.1599  0.5921
17055SOL     OW52605   6.780   7.557   3.195  0.2304  0.1136  0.1562
17055SOL    HW152606   6.872   7.571   3.220  0.2539 -0.9232  0.7185
17055SOL    HW252607   6.737   7.529   3.276 -0.5178  0.2761 -0.1753
17056SOL     OW52608   3.559   7.952   3.799  0.1563 -0.4124 -0.1739
17056SOL    HW152609   3.464   7.966   3.806  0.1144 -1.1165  1.0009
17056SOL    HW252610   3.597   8.020   3.854  0.2129 -1.4242  1.0712
17057SOL     OW52611   6.235   1.324  12.180 -0.2349 -0.3616 -0.5747
17057SOL    HW152612   6.314   1.342  12.130  0.5390 -0.4278  0.5790
17057SOL    HW252613   6.231   1.395  12.245  0.1657 -1.5979  0.8630
17058SOL     OW52614   6.579   7.437   2.643  0.1198 -0.2634 -0.5170
17058SOL    HW152615   6.524   7.388   2.582 -1.9273  1.3002 -0.0400
17058SOL    HW252616   6.657   7.459   2.592 -0.3420 -1.2832 -1.7065
17059SOL     OW52617   0.134   5.044   8.210  0.3059  0.0658  0.0418
17059SOL    HW152618   0.125   4.971   8.270  1.1050  0.3812  0.5610
17059SOL    HW252619   0.121   5.006   8.123  0.3907 -0.6239  0.3282
17060SOL     OW52620   5.206   6.173  11.040  0.2517 -0.4693 -0.7308
17060SOL    HW152621   5.234   6.226  11.114 -1.6885  0.6934 -0.7536
17060SOL    HW252622   5.169   6.236  10.978  0.0133 -1.6188 -1.8028
17061SOL     OW52623   4.206   4.037  10.748  0.0735  0.4150  0.5012
17061SOL    HW152624   4.164   4.052  10.663  0.0716 -2.5378 -0.1565
17061SOL    HW252625   4.278   4.099  10.751 -0.6553  1.3965 -1.1310
17062SOL     OW52626   4.290   5.789   1.889  0.2319  0.0069  0.3512
17062SOL    HW152627   4.272   5.883   1.887 -0.8696 -0.1663 -1.8292
17062SOL    HW252628   4.215   5.751   1.934  0.2270  0.0974  0.4192
17063SOL     OW52629   7.424   4.396   8.820 -0.0319 -0.3596  0.1389
17063SOL    HW152630   7.408   4.356   8.905  0.6271  1.2206  1.0636
17063SOL    HW252631   7.372   4.476   8.821  0.5364  0.0317 -0.6600
17064SOL     OW52632   6.036   4.377   3.356 -0.0539  0.2573  0.1395
17064SOL    HW152633   6.011   4.454   3.407 -0.7287  0.8879 -1.0983
17064SOL    HW252634   5.975   4.309   3.384  1.7811 -0.4970  2.7004
17065SOL     OW52635   6.414   6.248   3.835  0.0233 -0.0330  0.3505
17065SOL    HW152636   6.390   6.340   3.833  1.6012  0.4064 -0.8787
17065SOL    HW252637   6.332   6.201   3.818 -0.3470  1.2895 -1.8673
17066SOL     OW52638   0.567   1.507   0.433  0.1406 -0.5251  0.3140
17066SOL    HW152639   0.488   1.527   0.484 -0.4424 -1.2886 -0.2666
17066SOL    HW252640   0.563   1.566   0.358  0.0822 -0.6186  0.2438
17067SOL     OW52641   3.142   0.918  10.699  0.1100  0.2968  0.0526
17067SOL    HW152642   3.048   0.936  10.692  0.3440  2.1104  0.8123
17067SOL    HW252643   3.178   0.945  10.614 -0.1092 -0.9985 -0.4721
17068SOL     OW52644   2.897   0.477   1.348 -0.0611 -0.0040  0.6227
17068SOL    HW152645   2.951   0.489   1.270 -1.1064  1.3446  0.0616
17068SOL    HW252646   2.857   0.391   1.338  0.0123  0.0535 -0.2047
17069SOL     OW52647   6.554   0.162   4.977 -0.2394 -0.5318 -0.6424
17069SOL    HW152648   6.465   0.131   4.958  0.2100 -0.9512 -2.2372
17069SOL    HW252649   6.552   0.185   5.070 -2.0288 -0.4691 -0.6574
17070SOL     OW52650   6.202   1.287   2.803  0.0949  0.6102  0.2756
17070SOL    HW152651   6.159   1.316   2.883  0.3677 -0.3392  0.7768
17070SOL    HW252652   6.131   1.258   2.746 -0.0281  0.4282  0.5247
17071SOL     OW52653   0.638   2.589   9.276  0.0051 -0.0194  0.8681
17071SOL    HW152654   0.707   2.654   9.277 -0.1801  0.1750  1.1005
17071SOL    HW252655   0.584   2.612   9.200  0.3284 -0.3188  0.5372
17072SOL     OW52656   7.448   5.437  12.191  0.0197  0.5382 -0.7041
17072SOL    HW152657   7.496   5.506  12.238  0.2625 -0.7880  1.1285
17072SOL    HW252658   7.516   5.389  12.143  0.0459  0.7433 -0.8707
17073SOL     OW52659   1.585   6.624   7.138 -0.3837 -0.2190  0.2118
17073SOL    HW152660   1.509   6.567   7.154  0.2275 -1.0991 -0.0124
17073SOL    HW252661   1.587   6.636   7.044 -0.4508  0.1000  0.2497
17074SOL     OW52662   3.531   6.692   5.621 -0.1010 -0.1364 -0.7443
17074SOL    HW152663   3.553   6.718   5.711  0.2964 -1.8628 -0.2971
17074SOL    HW252664   3.488   6.769   5.584 -0.2651  0.6315  0.9238
17075SOL     OW52665   5.452   7.051   6.797 -0.1184  0.0275 -0.4259
17075SOL    HW152666   5.463   6.988   6.726  1.4310  0.6795 -0.8200
17075SOL    HW252667   5.530   7.107   6.791 -0.0323  0.2111  1.6763
17076SOL     OW52668   2.954   1.161   9.780  0.2416 -0.0330  0.4730
17076SOL    HW152669   2.940   1.255   9.771 -0.1185 -0.1453 -0.2109
17076SOL    HW252670   2.976   1.131   9.691  0.7152 -0.5336  0.7527
17077SOL     OW52671   7.463   3.778   9.448 -0.0360 -0.0346 -0.4381
17077SOL    HW152672   7.531   3.837   9.480  0.0438 -1.0649  1.4015
17077SOL    HW252673   7.476   3.776   9.353  1.8258  0.6123 -0.2390
17078SOL     OW52674   4.395   6.903   3.901  0.0940  0.0160 -0.0262
17078SOL    HW152675   4.340   6.830   3.873 -0.2367 -0.6435  2.1432
17078SOL    HW252676   4.483   6.865   3.908 -0.0827 -0.2123  1.1271
17079SOL     OW52677   6.558   5.320   5.380 -0.1930  0.3712 -0.7008
17079SOL    HW152678   6.502   5.354   5.450  1.8950 -1.0463  1.8788
17079SOL    HW252679   6.518   5.237   5.356 -0.5227  0.5072 -0.6249
17080SOL     OW52680   1.755   2.924  11.764 -0.1260 -0.1938  0.2488
17080SOL    HW152681   1.783   3.009  11.798 -0.1293  0.1212 -0.5060
17080SOL    HW252682   1.773   2.862  11.835  2.5156 -0.0288 -0.1706
17081SOL     OW52683   0.681   0.552   2.659 -0.7458  0.4970  0.2499
17081SOL    HW152684   0.716   0.477   2.610 -2.0552 -0.0197  0.0640
17081SOL    HW252685   0.733   0.627   2.629  0.8606 -0.3712  0.7379
17082SOL     OW52686   1.270   4.523   5.652 -0.3434  0.0904  0.2319
17082SOL    HW152687   1.253   4.470   5.730 -0.9417  0.0315  0.0655
17082SOL    HW252688   1.237   4.610   5.675  0.2160  0.2838  0.3334
17083SOL     OW52689   7.063   6.980   6.708 -0.4090 -0.2099  0.0384
17083SOL    HW152690   7.132   6.922   6.742 -0.5229 -0.1407  0.3948
17083SOL    HW252691   7.096   7.010   6.624  0.2964  0.3494  0.4969
17084SOL     OW52692   7.922   1.667  11.173 -0.0864  0.2426 -0.1030
17084SOL    HW152693   7.873   1.702  11.098  1.2226 -0.5766 -1.3909
17084SOL    HW252694   8.012   1.659  11.141  0.4471 -0.4250  1.4695
17085SOL     OW52695   1.603   3.669   6.612  0.5939 -0.1067 -0.0226
17085SOL    HW152696   1.527   3.632   6.569  0.3659  1.0425 -0.6530
17085SOL    HW252697   1.567   3.722   6.683  0.9482 -1.6295  1.3597
17086SOL     OW52698   6.816   6.729  12.095 -0.4646 -0.3537 -0.4196
17086SOL    HW152699   6.822   6.731  12.190  0.8727  0.0254 -0.4899
17086SOL    HW252700   6.778   6.643  12.075 -0.9784 -0.3377  0.4507
17087SOL     OW52701   3.856   1.050  11.777 -0.0657 -0.4763 -0.6985
17087SOL    HW152702   3.792   0.985  11.804  2.3200 -2.2421  1.1791
17087SOL    HW252703   3.875   1.030  11.686 -0.5617 -1.3573 -0.6149
17088SOL     OW52704   5.129   7.437   1.924  0.3803  0.5632  0.4151
17088SOL    HW152705   5.075   7.402   1.852  0.3190  1.9619 -0.2545
17088SOL    HW252706   5.215   7.451   1.884  0.7721 -0.0243  1.0252
17089SOL     OW52707   1.576   0.392   6.343 -0.2892  0.0335 -0.4679
17089SOL    HW152708   1.550   0.483   6.357 -2.3149 -0.7687  1.7017
17089SOL    HW252709   1.495   0.343   6.352  0.9689 -2.1139 -0.2541
17090SOL     OW52710   5.977   0.179   1.159 -0.5097  0.0157  0.9118
17090SOL    HW152711   5.959   0.209   1.249 -0.2208 -1.2683  1.4163
17090SOL    HW252712   5.895   0.141   1.129 -0.3359 -0.4457  1.0076
17091SOL     OW52713   1.557   0.358   7.117  0.1462  0.1339  0.1357
17091SOL    HW152714   1.603   0.348   7.200 -0.1498  1.9877  0.5558
17091SOL    HW252715   1.615   0.410   7.062 -0.1670 -0.0652 -0.3968
17092SOL     OW52716   2.391   0.211   0.749  0.2153 -0.7006 -0.3727
17092SOL    HW152717   2.481   0.241   0.734  0.3832 -0.7960  0.4003
17092SOL    HW252718   2.398   0.116   0.754  0.2550 -0.6550  0.7612
17093SOL     OW52719   7.042   0.177  10.147  0.0191 -0.0398  0.3512
17093SOL    HW152720   6.980   0.229  10.095 -0.6251 -1.5701 -0.4684
17093SOL    HW252721   7.127   0.192  10.104 -0.1187  0.4917  0.2528
17094SOL     OW52722   6.321   0.697   3.394 -0.0944  0.7644  0.1857
17094SOL    HW152723   6.296   0.609   3.369 -0.0675  0.5687  0.8360
17094SOL    HW252724   6.278   0.712   3.478  0.7142  0.9963  0.5635
17095SOL     OW52725   6.749   1.197   5.191 -0.0461  0.1393  0.0592
17095SOL    HW152726   6.816   1.164   5.250  0.6337  0.3947 -0.5480
17095SOL    HW252727   6.778   1.285   5.168 -0.9009  0.4788  0.2505
17096SOL     OW52728   2.655   7.094   3.770  0.2436  0.0567  0.6160
17096SOL    HW152729   2.589   7.096   3.701 -0.1135 -1.4000  0.8801
17096SOL    HW252730   2.709   7.171   3.755  1.9480 -1.6002 -3.0389
17097SOL     OW52731   3.193   6.624   9.865 -0.2563  0.1045 -0.0466
17097SOL    HW152732   3.236   6.549   9.826 -2.4782 -0.9139 -0.7054
17097SOL    HW252733   3.201   6.693   9.800  2.6036  0.8553  0.9356
17098SOL     OW52734   3.864   7.348   0.106  0.1187 -0.2233 -0.1055
17098SOL    HW152735   3.784   7.393   0.081  0.4879  1.4882  1.6221
17098SOL    HW252736   3.931   7.382   0.046 -0.0059  0.0130 -0.1095
17099SOL     OW52737   6.772   5.881   3.443 -0.2110  0.1098  0.4424
17099SOL    HW152738   6.809   5.804   3.399  1.2788  1.1989 -0.3143
17099SOL    HW252739   6.690   5.897   3.397  0.0319 -0.3377 -0.1733
17100SOL     OW52740   0.761   5.071   0.844  0.5989  0.1945  0.4649
17100SOL    HW152741   0.705   4.996   0.823 -0.1873  0.5106  1.4236
17100SOL    HW252742   0.741   5.093   0.934  1.5550  0.9481  0.5179
17101SOL     OW52743   2.342   6.144   6.277  0.1989 -0.1808 -0.6914
17101SOL    HW152744   2.394   6.222   6.297  2.5841 -1.4964 -1.2712
17101SOL    HW252745   2.397   6.071   6.306 -1.9358 -1.6797 -0.1629
17102SOL     OW52746   0.947   1.049  11.899 -0.7400  0.3925 -0.4718
17102SOL    HW152747   0.852   1.046  11.909 -0.6124 -0.1984  0.7876
17102SOL    HW252748   0.980   1.046  11.989  0.5322 -2.4623 -0.9269
17103SOL     OW52749   1.099   5.711   6.051  0.0828 -0.0119 -0.0581
17103SOL    HW152750   1.031   5.644   6.051  0.2024 -0.2411 -2.7774
17103SOL    HW252751   1.106   5.739   6.142 -2.6771 -0.9367  0.5059
17104SOL     OW52752   0.656   7.348   3.811 -0.6176  0.5066 -0.2914
17104SOL    HW152753   0.570   7.352   3.853  0.0124  1.4472  1.0080
17104SOL    HW252754   0.684   7.258   3.823 -0.8236  0.5452  0.6006
17105SOL     OW52755   2.014   0.325   2.683 -0.0295 -0.1826  0.1163
17105SOL    HW152756   1.931   0.298   2.721  0.3221 -1.4686 -0.0048
17105SOL    HW252757   2.034   0.408   2.727 -2.0272  0.8873 -0.8584
17106SOL     OW52758   1.369   5.591   8.204  0.3627 -0.2747 -0.6449
17106SOL    HW152759   1.452   5.605   8.249 -0.1893  1.0666  0.0215
17106SOL    HW252760   1.336   5.680   8.188 -2.0283 -0.7376  1.1778
17107SOL     OW52761   5.263   2.786  11.874 -0.0473  0.1791  0.6175
17107SOL    HW152762   5.326   2.721  11.842 -0.4153  0.2390 -0.2636
17107SOL    HW252763   5.231   2.828  11.795 -2.0144 -0.6068  0.9493
17108SOL     OW52764   7.640   5.015   4.204  0.1757 -0.5542 -0.6493
17108SOL    HW152765   7.668   5.101   4.233 -0.1154  0.2946 -2.7374
17108SOL    HW252766   7.643   4.961   4.283 -0.0844  1.4580  0.8067
17109SOL     OW52767   1.967   3.651   1.499  0.4063  0.1779  0.4026
17109SOL    HW152768   1.944   3.564   1.532 -1.1780  0.1524 -0.6526
17109SOL    HW252769   1.964   3.707   1.576  0.9440 -0.6103  1.0089
17110SOL     OW52770   6.001   2.805  10.906 -0.1802  0.3483 -0.1287
17110SOL    HW152771   6.046   2.721  10.908 -0.1171  0.4062  1.3852
17110SOL    HW252772   5.915   2.788  10.944 -0.6625  0.7020 -1.0266
17111SOL     OW52773   5.266   3.581   6.380  0.4757 -0.0386  0.1193
17111SOL    HW152774   5.210   3.624   6.446  0.8480 -1.0351  1.1156
17111SOL    HW252775   5.206   3.562   6.308 -0.0450  0.6680  0.3461
17112SOL     OW52776   3.754   0.780   6.438 -0.9171  0.0627 -0.2219
17112SOL    HW152777   3.662   0.760   6.421 -0.8289 -0.3922 -0.1691
17112SOL    HW252778   3.802   0.725   6.377 -0.6205 -0.9869  0.9221
17113SOL     OW52779   6.810   5.740   4.742 -0.2843 -0.2267 -0.4408
17113SOL    HW152780   6.804   5.770   4.651  2.2334 -0.8779 -0.9069
17113SOL    HW252781   6.850   5.653   4.736  0.0268 -0.2346  1.2933
17114SOL     OW52782   2.572   7.327   1.242  0.3336 -0.1471  0.0767
17114SOL    HW152783   2.617   7.359   1.320  2.7327 -0.9564 -0.8985
17114SOL    HW252784   2.500   7.274   1.277  1.4216 -0.6125  1.7632
17115SOL     OW52785   3.475   5.366   1.519 -0.4694 -0.0826 -0.3872
17115SOL    HW152786   3.397   5.353   1.465 -0.6020 -0.7531 -0.0430
17115SOL    HW252787   3.524   5.285   1.512  1.9629  1.4326 -3.3131
17116SOL     OW52788   3.117   2.656  12.070 -0.2611 -0.6114  0.1982
17116SOL    HW152789   3.176   2.728  12.095 -0.4351 -0.4636  0.1828
17116SOL    HW252790   3.119   2.597  12.145  2.2065 -2.1178 -0.9145
17117SOL     OW52791   1.616   2.482   3.143 -0.1008  0.3748  0.4708
17117SOL    HW152792   1.683   2.537   3.181 -0.7559  1.2354  0.4104
17117SOL    HW252793   1.572   2.442   3.218  0.5210 -0.2524  0.5067
17118SOL     OW52794   6.922   7.257   0.304 -0.6508  0.1194 -0.7676
17118SOL    HW152795   6.950   7.276   0.214 -0.2762  0.3075 -0.6120
17118SOL    HW252796   6.860   7.328   0.324  0.1420  0.7494 -0.4732
17119SOL     OW52797   4.733   4.148  12.172  0.2326 -0.5709  0.4751
17119SOL    HW152798   4.780   4.193  12.243  0.4456 -0.3332  0.1868
17119SOL    HW252799   4.665   4.098  12.217  0.8037 -0.9842  0.9135
17120SOL     OW52800   4.816   3.182  12.061  0.3194  0.0390 -0.0325
17120SOL    HW152801   4.769   3.190  11.978 -1.4247  1.2103  0.9877
17120SOL    HW252802   4.842   3.272  12.082 -0.3559 -0.0390  1.2481
17121SOL     OW52803   5.635   4.424   9.373  0.3254 -0.0626 -0.6206
17121SOL    HW152804   5.691   4.493   9.408  0.3777  0.1585 -1.1324
17121SOL    HW252805   5.561   4.471   9.334 -0.0785 -0.3403 -0.1808
17122SOL     OW52806   6.998   2.926  11.518 -0.4893 -0.4719  0.4577
17122SOL    HW152807   7.073   2.872  11.541 -0.3453 -0.5538 -0.1802
17122SOL    HW252808   6.922   2.871  11.534 -0.4556 -0.1663  1.7229
17123SOL     OW52809   4.474   3.171  12.355  0.0077 -0.3696  0.3073
17123SOL    HW152810   4.438   3.118  12.426  2.1446 -0.5886  1.3004
17123SOL    HW252811   4.481   3.111  12.281 -2.9662  0.0502 -0.4406
17124SOL     OW52812   3.404   5.585   5.827  0.2025 -0.2772  0.2220
17124SOL    HW152813   3.433   5.627   5.909 -2.0838  1.0186  0.4615
17124SOL    HW252814   3.386   5.658   5.768 -0.3294 -1.1021 -0.6667
17125SOL     OW52815   7.362   4.006  10.566 -0.6572  0.1152 -0.1604
17125SOL    HW152816   7.354   4.038  10.656 -0.3754  0.5760 -0.2961
17125SOL    HW252817   7.282   3.955  10.552 -0.8453  0.2882  0.2532
17126SOL     OW52818   3.008   4.629   6.754 -0.4274 -0.1679  0.0302
17126SOL    HW152819   3.000   4.566   6.683  1.8648 -0.3539 -0.1375
17126SOL    HW252820   2.925   4.677   6.753 -0.7075 -0.5705 -2.3701
17127SOL     OW52821   4.540   1.325   4.770 -1.2305  0.5906  0.0886
17127SOL    HW152822   4.621   1.336   4.720 -0.7096 -1.1336  0.5025
17127SOL    HW252823   4.505   1.414   4.777  0.9103  1.4719  0.3888
17128SOL     OW52824   0.281   1.912  10.028  0.2275 -0.3834 -0.5436
17128SOL    HW152825   0.261   2.003  10.049  0.1705 -0.5062 -0.0421
17128SOL    HW252826   0.350   1.888  10.090 -0.8407 -1.1502  0.3938
17129SOL     OW52827   4.774   2.490   5.854 -0.1986 -0.0962  0.3910
17129SOL    HW152828   4.798   2.398   5.847 -1.5443 -0.4181 -0.2538
17129SOL    HW252829   4.765   2.520   5.764  0.6508  0.7971  0.5853
17130SOL     OW52830   7.304   1.589   9.228  0.3038 -0.8251  0.2990
17130SOL    HW152831   7.239   1.592   9.158  1.0014 -2.1169 -0.4365
17130SOL    HW252832   7.388   1.602   9.184  0.6877 -0.8023  1.0148
17131SOL     OW52833   4.574   3.428   8.285  0.3482 -0.4459 -0.6191
17131SOL    HW152834   4.505   3.390   8.230  1.8481  0.0197 -2.9365
17131SOL    HW252835   4.569   3.378   8.367 -1.1008 -2.1039 -1.6440
17132SOL     OW52836   7.725   5.003  11.859 -0.4999 -0.0231 -0.0949
17132SOL    HW152837   7.754   5.033  11.772 -0.4682  0.7617  0.1796
17132SOL    HW252838   7.633   5.027  11.862 -0.8152 -1.1357 -0.3682
17133SOL     OW52839   0.900   2.299   1.058  0.1082  0.0173  0.1193
17133SOL    HW152840   0.884   2.338   0.972  0.6014  1.9100  0.8345
17133SOL    HW252841   0.865   2.210   1.051 -1.7434  0.7937 -1.3812
17134SOL     OW52842   6.983   6.074  10.685 -0.2096 -0.4530  0.4939
17134SOL    HW152843   7.056   6.097  10.628 -0.8373 -0.1652 -0.2229
17134SOL    HW252844   7.020   6.070  10.773  0.9136 -1.4913 -0.0051
17135SOL     OW52845   7.229   5.303   2.815  0.1157 -0.2224  0.1754
17135SOL    HW152846   7.320   5.287   2.842 -0.3012 -2.2329  0.5521
17135SOL    HW252847   7.183   5.322   2.897 -0.2309 -1.5898  0.3241
17136SOL     OW52848   4.502   3.176   1.438  0.2110 -0.9590 -0.1461
17136SOL    HW152849   4.554   3.150   1.514  0.6105  0.0236 -0.0653
17136SOL    HW252850   4.469   3.264   1.461 -0.3873 -1.0160 -0.7489
17137SOL     OW52851   3.696   4.343   3.235  0.1166 -0.0717  0.5289
17137SOL    HW152852   3.745   4.284   3.292 -0.7945 -0.1939  1.2060
17137SOL    HW252853   3.754   4.356   3.160 -0.1604 -2.9273 -0.3175
17138SOL     OW52854   4.247   3.215   5.342  0.6700 -0.7339  0.2477
17138SOL    HW152855   4.152   3.224   5.344  0.5964 -1.4134  0.1511
17138SOL    HW252856   4.275   3.240   5.430  0.6445  1.7647 -0.3808
17139SOL     OW52857   4.276   6.108   5.732 -0.1698  0.1382  0.2438
17139SOL    HW152858   4.183   6.129   5.734 -0.5181 -1.2632  3.2169
17139SOL    HW252859   4.281   6.027   5.681 -0.4752  0.5164 -0.4017
17140SOL     OW52860   3.390   1.227   3.306  0.5866 -0.2303  0.5365
17140SOL    HW152861   3.460   1.290   3.292  1.8695 -1.0539  2.6977
17140SOL    HW252862   3.415   1.150   3.255  1.2427 -0.4968  1.2490
17141SOL     OW52863   5.037   4.738   3.506 -0.3952 -0.2500  0.1839
17141SOL    HW152864   5.077   4.813   3.462 -0.6860  0.8626  1.7137
17141SOL    HW252865   4.944   4.744   3.484 -0.1892 -1.1308 -1.0021
17142SOL     OW52866   2.420   6.500   1.520 -0.8865  0.1668  0.2419
17142SOL    HW152867   2.460   6.572   1.471 -0.1798  0.4863  1.2562
17142SOL    HW252868   2.331   6.530   1.540 -0.8126  0.4850  0.0919
17143SOL     OW52869   1.468   0.939   6.670  0.4872  0.0394  0.5727
17143SOL    HW152870   1.559   0.947   6.643  0.2690 -0.8802 -0.5175
17143SOL    HW252871   1.470   0.884   6.749  0.9870  1.3122  1.4760
17144SOL     OW52872   5.724   0.593   2.203  0.5288  0.7480 -0.0033
17144SOL    HW152873   5.668   0.671   2.202  1.3276  1.3295 -0.2991
17144SOL    HW252874   5.802   0.619   2.153  0.2214 -0.6905 -1.2990
17145SOL     OW52875   2.807   6.409   9.276 -0.2206  0.2303 -0.8474
17145SOL    HW152876   2.763   6.412   9.361  0.3194  1.0295 -0.5864
17145SOL    HW252877   2.884   6.354   9.292 -0.3263  0.0604 -0.9210
17146SOL     OW52878   6.810   1.868   3.710  0.0566  0.0858  0.0661
17146SOL    HW152879   6.717   1.891   3.700 -0.1428 -0.7717 -0.1311
17146SOL    HW252880   6.809   1.789   3.763  0.6740  0.0041 -0.0452
17147SOL     OW52881   6.903   6.367  10.831  0.3741 -0.2275  0.4758
17147SOL    HW152882   6.934   6.395  10.917  1.0228 -1.1050  0.5534
17147SOL    HW252883   6.888   6.273  10.841  2.0148 -0.6690 -0.7807
17148SOL     OW52884   5.494   1.764   0.621  0.1884  0.4499  0.1923
17148SOL    HW152885   5.551   1.840   0.605  1.2112 -0.2376  0.4646
17148SOL    HW252886   5.431   1.794   0.686  0.5226  1.0911  0.2281
17149SOL     OW52887   7.532   4.591   0.145 -0.5536 -0.0952  0.1322
17149SOL    HW152888   7.443   4.591   0.181 -1.1516 -1.3216 -1.2573
17149SOL    HW252889   7.585   4.552   0.214 -0.6816  2.3507  1.7580
17150SOL     OW52890   2.135   7.296   2.887  0.1496  0.1797 -0.1141
17150SOL    HW152891   2.159   7.339   2.805  0.1326 -2.0061 -1.3574
17150SOL    HW252892   2.211   7.308   2.944  1.7091 -1.2533 -1.7519
17151SOL     OW52893   0.840   7.264   4.396  0.1340 -0.6622  0.3351
17151SOL    HW152894   0.847   7.359   4.391  3.8015 -0.7568  0.8947
17151SOL    HW252895   0.835   7.236   4.305  0.1916  0.0319  0.1104
17152SOL     OW52896   3.679   0.050   7.875  0.3089 -1.0188  0.3121
17152SOL    HW152897   3.670   0.079   7.965 -3.0227 -1.4756  0.2612
17152SOL    HW252898   3.635  -0.035   7.873 -0.4451 -0.6389 -1.8821
17153SOL     OW52899   2.048   0.395  12.094 -0.5081  0.1676  0.3830
17153SOL    HW152900   1.971   0.442  12.125  1.3911  2.2013  2.4122
17153SOL    HW252901   2.104   0.463  12.055  0.3224 -1.2285 -0.9726
17154SOL     OW52902   7.775   2.482   0.477 -0.0778 -0.0990 -0.0226
17154SOL    HW152903   7.752   2.542   0.548  0.4097 -1.3759  1.2622
17154SOL    HW252904   7.868   2.497   0.461 -0.0993 -0.0768 -0.1260
17155SOL     OW52905   4.133   7.260   8.506  0.2807  0.1783  0.3327
17155SOL    HW152906   4.180   7.238   8.587 -0.0076  0.6180  0.6261
17155SOL    HW252907   4.061   7.198   8.503 -0.6309  1.1390  1.2484
17156SOL     OW52908   1.895   1.563   5.276  0.1184 -0.1403 -0.2941
17156SOL    HW152909   1.810   1.602   5.254 -0.2512 -1.3374 -1.1075
17156SOL    HW252910   1.883   1.530   5.365 -1.3969 -3.0786 -1.4465
17157SOL     OW52911   0.944   4.808   7.008  0.2288 -0.2087 -0.2345
17157SOL    HW152912   0.851   4.798   7.028  0.1964  1.3216  0.4855
17157SOL    HW252913   0.946   4.839   6.917 -0.0240  0.6499  0.0438
17158SOL     OW52914   2.940   4.518  11.385 -0.5366  0.6277  0.4322
17158SOL    HW152915   2.951   4.431  11.347 -2.3302 -0.2235  1.6769
17158SOL    HW252916   3.008   4.525  11.452 -1.0205 -0.2769  1.0370
17159SOL     OW52917   6.960   6.088   6.741 -0.1591 -0.1729  0.4232
17159SOL    HW152918   7.041   6.138   6.744  0.7214 -1.5837  1.3099
17159SOL    HW252919   6.923   6.097   6.829 -0.9546  0.4016  0.0476
17160SOL     OW52920   2.838   0.123  10.051 -0.2543 -0.0436  0.3398
17160SOL    HW152921   2.765   0.082  10.098  0.5677 -0.9953  0.8289
17160SOL    HW252922   2.841   0.075   9.968 -0.4559  0.2981  0.1330
17161SOL     OW52923   5.913   5.753   6.525  0.6878  0.4396  0.3520
17161SOL    HW152924   5.893   5.662   6.503 -0.1192  1.0996 -1.8869
17161SOL    HW252925   5.861   5.805   6.463 -0.8443  2.5213  3.1622
17162SOL     OW52926   3.713   5.934  10.005  0.1599 -0.4045 -0.1700
17162SOL    HW152927   3.684   6.025  10.010 -1.4310 -0.9299  0.9953
17162SOL    HW252928   3.777   5.933   9.933 -0.8433  1.3427 -1.1576
17163SOL     OW52929   2.218   3.161   8.947  0.0725  0.1716 -0.0140
17163SOL    HW152930   2.189   3.147   9.037 -0.2714 -2.7684 -0.4853
17163SOL    HW252931   2.311   3.137   8.948  0.1596  0.4793 -0.3966
17164SOL     OW52932   4.065   6.444   0.020 -0.3313 -0.2548 -0.2436
17164SOL    HW152933   4.053   6.462  -0.073  1.1972 -0.1288 -0.4423
17164SOL    HW252934   3.977   6.451   0.057 -1.0898 -1.0229 -1.7830
17165SOL     OW52935   6.886   3.026   8.529 -0.3247 -0.2125  0.0607
17165SOL    HW152936   6.978   3.028   8.557 -0.1223  0.4080 -0.6313
17165SOL    HW252937   6.880   2.951   8.470  0.1195  0.6842 -1.1518
17166SOL     OW52938   5.261   1.423   6.712 -0.5560 -1.0864 -0.3522
17166SOL    HW152939   5.223   1.365   6.779 -0.5619  0.2075  0.8031
17166SOL    HW252940   5.215   1.506   6.723  0.3562 -0.4601 -1.1075
17167SOL     OW52941   1.306   7.152  12.118  0.0702 -0.0465 -0.2810
17167SOL    HW152942   1.218   7.113  12.123  0.0326 -0.4290 -2.7561
17167SOL    HW252943   1.306   7.219  12.187 -2.8785  1.3053 -1.4182
17168SOL     OW52944   5.959   3.898  10.186  0.3635 -0.8042 -0.3001
17168SOL    HW152945   5.926   3.862  10.268  0.3429 -2.5129 -1.0138
17168SOL    HW252946   6.048   3.928  10.207 -0.0835 -0.0715  0.6213
17169SOL     OW52947   6.435   2.765  11.715 -0.8896 -0.1488 -0.1379
17169SOL    HW152948   6.395   2.849  11.691 -2.2094 -0.9625 -0.8681
17169SOL    HW252949   6.502   2.789  11.780 -0.2048  1.6236 -1.4120
17170SOL     OW52950   5.965   5.480  10.249  0.0032  0.0614 -0.0903
17170SOL    HW152951   5.906   5.515  10.317 -0.0184  0.8539 -0.5102
17170SOL    HW252952   5.954   5.539  10.175  0.3823 -0.5291 -0.6247
17171SOL     OW52953   1.640   5.899   5.759  0.8235  0.1039 -0.0863
17171SOL    HW152954   1.583   5.970   5.731  2.0538  0.7642 -1.0245
17171SOL    HW252955   1.586   5.846   5.818 -0.3312  1.4164  0.0738
17172SOL     OW52956   4.213   1.036  11.265 -0.3020  0.0635 -0.1435
17172SOL    HW152957   4.231   1.024  11.358 -1.2037  1.6758  0.2799
17172SOL    HW252958   4.196   1.130  11.256  0.3276  0.0406 -2.0454
17173SOL     OW52959   1.871   7.558  11.548  0.3903 -0.0128 -0.3556
17173SOL    HW152960   1.948   7.593  11.593 -1.0688  1.0192  1.4986
17173SOL    HW252961   1.869   7.465  11.572  0.2861  0.2759  0.8248
17174SOL     OW52962   0.833   5.976   8.505 -0.4960  0.1148  0.0387
17174SOL    HW152963   0.739   5.993   8.501 -0.3734  0.9070  0.3252
17174SOL    HW252964   0.857   5.995   8.596 -0.1439 -0.5801  0.0971
17175SOL     OW52965   0.956   5.201   9.969 -0.0803 -0.3597 -0.1691
17175SOL    HW152966   0.873   5.185   9.924  0.7922 -1.5597 -1.4621
17175SOL    HW252967   0.971   5.295   9.960 -0.1765 -0.4917 -2.0280
17176SOL     OW52968   3.250   6.667   5.501 -0.3413  0.3361 -0.3191
17176SOL    HW152969   3.288   6.691   5.586 -1.9938 -1.9629  1.1724
17176SOL    HW252970   3.323   6.633   5.451  0.4613  0.6824  0.5829
17177SOL     OW52971   6.157   4.731   8.401 -0.3411  0.0499 -0.3175
17177SOL    HW152972   6.109   4.650   8.385 -0.1324  0.0312 -0.8941
17177SOL    HW252973   6.193   4.721   8.489 -1.3415  0.0436  0.1052
17178SOL     OW52974   2.257   6.312   9.537 -0.0274  0.4545 -0.1167
17178SOL    HW152975   2.293   6.229   9.569  0.4727  0.9004  0.4981
17178SOL    HW252976   2.179   6.326   9.591 -1.0153 -0.3854 -1.2796
17179SOL     OW52977   6.617   6.550   6.024 -0.3638 -0.9440  0.4560
17179SOL    HW152978   6.712   6.545   6.035 -0.2187 -0.6750 -0.5255
17179SOL    HW252979   6.595   6.640   6.050 -0.2341 -0.7636 -0.0474
17180SOL     OW52980   0.032   0.234   5.048  0.1617  0.0244 -0.5409
17180SOL    HW152981   0.057   0.204   4.961  0.3559 -2.4912  0.3020
17180SOL    HW252982  -0.035   0.172   5.076 -2.7610  2.9928 -0.3258
17181SOL     OW52983   6.895   2.264  10.383 -0.1181 -0.2592 -0.0582
17181SOL    HW152984   6.870   2.345  10.339 -2.6599 -1.4339 -0.9751
17181SOL    HW252985   6.903   2.288  10.476 -2.4389  0.7589 -0.0613
17182SOL     OW52986   5.638   0.350   7.307  0.1463  0.6616  0.4819
17182SOL    HW152987   5.545   0.333   7.296 -0.2594  2.5530  0.6012
17182SOL    HW252988   5.654   0.431   7.259  1.6337  0.6555  0.8935
17183SOL     OW52989   4.190   0.877   9.761 -0.0379 -0.3226  0.5078
17183SOL    HW152990   4.142   0.799   9.791 -1.7018  0.2364 -0.5649
17183SOL    HW252991   4.133   0.950   9.782  0.2559  0.3633 -0.9667
17184SOL     OW52992   7.850   1.092   7.394  0.3105  0.3298 -0.4303
17184SOL    HW152993   7.769   1.127   7.431  1.4081  0.7905  1.7153
17184SOL    HW252994   7.825   1.009   7.354 -1.0086 -0.3079  1.5602
17185SOL     OW52995   4.763   3.384   0.203 -0.5107  0.2473 -0.6015
17185SOL    HW152996   4.737   3.475   0.212  1.4463  0.7519  0.6076
17185SOL    HW252997   4.740   3.361   0.113 -0.4923  2.1115 -1.1225
17186SOL     OW52998   1.179   1.364   6.393 -0.0577  0.1885  0.3801
17186SOL    HW152999   1.167   1.349   6.299 -0.9173 -2.0347  0.7880
17186SOL    HW253000   1.274   1.361   6.405 -0.0063 -1.6799 -0.1562
17187SOL     OW53001   5.745   4.458  12.429 -0.7866  0.0647  0.1988
17187SOL    HW153002   5.823   4.514  12.434 -1.6321  1.4128 -0.8696
17187SOL    HW253003   5.779   4.369  12.419  0.6552  0.8184 -2.3529
17188SOL     OW53004   3.926   7.695   9.705  0.3658 -0.5431  0.1526
17188SOL    HW153005   3.928   7.754   9.780 -0.2589 -0.5951  0.2179
17188SOL    HW253006   3.836   7.662   9.703  0.3972 -0.6054 -0.5724
17189SOL     OW53007   2.123   3.605   9.720  0.4361  0.1800 -0.3292
17189SOL    HW153008   2.034   3.641   9.714  0.7341  0.7850 -1.4585
17189SOL    HW253009   2.124   3.532   9.658  1.2415  1.3676 -1.7831
17190SOL     OW53010   3.684   5.298   7.478 -0.5489 -0.1621 -0.8381
17190SOL    HW153011   3.588   5.307   7.478 -0.7256 -1.8572 -0.2576
17190SOL    HW253012   3.709   5.316   7.387 -1.3586  0.7500 -0.8987
17191SOL     OW53013   7.050   2.707   7.450  0.6703 -0.0045 -0.3172
17191SOL    HW153014   6.964   2.748   7.447  0.5288 -0.3409 -0.9084
17191SOL    HW253015   7.105   2.772   7.495  0.0211  0.0235  0.4681
17192SOL     OW53016   0.379   6.808   9.167  0.1858  0.0988 -0.0610
17192SOL    HW153017   0.431   6.776   9.241  0.9667 -2.3268 -1.5314
17192SOL    HW253018   0.304   6.747   9.163 -0.7384  1.2127 -0.2917
17193SOL     OW53019   7.428   7.542   5.274  0.1088  0.1821 -0.5857
17193SOL    HW153020   7.487   7.594   5.219 -1.6664  1.9507 -0.9352
17193SOL    HW253021   7.389   7.478   5.214  0.7995 -0.2577 -0.5821
17194SOL     OW53022   0.262   0.494   6.289 -0.1220  0.2309 -0.0035
17194SOL    HW153023   0.170   0.477   6.312  0.0970 -1.2181 -0.0952
17194SOL    HW253024   0.256   0.551   6.212 -0.9866 -0.5674 -0.5614
17195SOL     OW53025   1.397   5.870   8.192 -0.2318  0.4462 -0.3087
17195SOL    HW153026   1.354   5.933   8.250  0.6424  0.2035  0.6410
17195SOL    HW253027   1.418   5.921   8.114 -0.4607  1.0785  0.0254
17196SOL     OW53028   7.262   2.107   3.454  0.4103 -0.3212  0.2374
17196SOL    HW153029   7.217   2.059   3.523  1.4677 -0.3865  0.9014
17196SOL    HW253030   7.262   2.198   3.483 -1.1538  0.0534 -0.7858
17197SOL     OW53031   5.983   7.449  11.103 -0.0581 -0.3542 -0.2295
17197SOL    HW153032   5.997   7.523  11.044  1.0853  1.2923  1.9664
17197SOL    HW253033   5.903   7.470  11.150 -0.9640 -1.6562 -1.1265
17198SOL     OW53034   2.269   7.044   9.722 -0.3317  0.5678 -0.0658
17198SOL    HW153035   2.317   6.962   9.724  0.4188  0.7850 -3.3476
17198SOL    HW253036   2.177   7.018   9.709 -0.5482  0.2682  1.7550
17199SOL     OW53037   7.888   1.278   3.689  0.5648  0.7283 -0.0917
17199SOL    HW153038   7.922   1.366   3.675 -1.2146  1.3812 -0.6363
17199SOL    HW253039   7.946   1.221   3.640  1.0325  1.7467 -0.7469
17200SOL     OW53040   1.450   0.527  11.900  0.4855  0.1206  0.5919
17200SOL    HW153041   1.544   0.538  11.911  0.3029  1.4806  0.9348
17200SOL    HW253042   1.412   0.606  11.937 -0.8763 -0.9665  1.6326
17201SOL     OW53043   6.018   5.348   1.698 -0.9678 -0.2201  0.0652
17201SOL    HW153044   5.927   5.352   1.670 -1.0354  1.6494  0.3889
17201SOL    HW253045   6.023   5.271   1.754 -2.8069  0.6361  1.4996
17202SOL     OW53046   6.750   1.009   0.555 -0.1576  0.1065  0.3989
17202SOL    HW153047   6.660   1.027   0.584  0.1191 -0.7051  1.8293
17202SOL    HW253048   6.805   1.057   0.617  0.4222 -0.3027  0.2007
17203SOL     OW53049   6.539   6.541  12.163 -0.2264  0.4555 -0.4424
17203SOL    HW153050   6.453   6.498  12.169 -0.6110  1.2738  0.0297
17203SOL    HW253051   6.538   6.582  12.077 -0.6422  1.1519 -0.1108
17204SOL     OW53052   5.662   4.007   1.880 -0.1824 -0.1584 -0.3030
17204SOL    HW153053   5.694   3.933   1.931 -2.5676 -0.6453  0.6210
17204SOL    HW253054   5.733   4.026   1.819  2.2222 -0.4952  2.1744
17205SOL     OW53055   5.730   1.262   0.084  0.2515  0.3690  0.8128
17205SOL    HW153056   5.771   1.175   0.089 -0.4238  0.0777  1.6066
17205SOL    HW253057   5.747   1.301   0.170 -1.0090  0.2889  1.1154
17206SOL     OW53058   1.624   7.823   8.645 -0.4672  0.5699  0.0062
17206SOL    HW153059   1.712   7.811   8.608 -0.0950 -1.1722  1.3085
17206SOL    HW253060   1.614   7.918   8.652  2.4975  0.8706  2.3554
17207SOL     OW53061   3.037   2.290   8.811 -0.0148 -0.5617  0.1109
17207SOL    HW153062   3.042   2.349   8.887  2.0069  2.0875 -1.8709
17207SOL    HW253063   2.947   2.296   8.781 -0.1058  0.7534  0.5864
17208SOL     OW53064   2.185   0.165  12.047  0.3254  0.3010 -0.5171
17208SOL    HW153065   2.118   0.233  12.049 -0.1315 -0.1626  0.4830
17208SOL    HW253066   2.260   0.203  12.093  0.7152  0.7632 -1.5032
17209SOL     OW53067   1.247   0.993   8.449  0.1273 -0.3574  0.4543
17209SOL    HW153068   1.253   1.023   8.540 -2.0339 -1.7285  1.1360
17209SOL    HW253069   1.214   1.070   8.401  0.8988  0.2524  0.8812
17210SOL     OW53070   7.492   3.831   9.166  0.2183 -0.3288 -0.4784
17210SOL    HW153071   7.539   3.874   9.096  1.0658 -0.5984 -0.0880
17210SOL    HW253072   7.442   3.901   9.208  0.4713  0.0117 -0.7399
17211SOL     OW53073   6.634   2.276   8.128  0.4036  0.5499 -0.1938
17211SOL    HW153074   6.680   2.296   8.210  3.5178  1.0083 -1.9198
17211SOL    HW253075   6.654   2.350   8.071 -1.7214  0.2585 -1.4294
17212SOL     OW53076   0.120   6.564   6.394 -0.9774 -0.3141 -0.1235
17212SOL    HW153077   0.170   6.496   6.349 -1.5270 -0.0214 -1.2285
17212SOL    HW253078   0.102   6.529   6.481  2.0028 -0.0259  0.7028
17213SOL     OW53079   7.959   3.272   5.534  0.0950 -0.2409  0.8390
17213SOL    HW153080   7.953   3.203   5.601  1.9833 -0.9137  0.3857
17213SOL    HW253081   8.002   3.229   5.460 -2.7401  0.2031 -1.2712
17214SOL     OW53082   4.506   1.313   6.354  0.6332 -0.1027  0.1766
17214SOL    HW153083   4.448   1.320   6.279  1.0799  0.0189 -0.1593
17214SOL    HW253084   4.471   1.375   6.418 -0.4607 -1.0650  0.5564
17215SOL     OW53085   3.124   3.380   9.170 -0.0401  0.1814 -0.2882
17215SOL    HW153086   3.107   3.395   9.263 -2.4617  0.0256 -0.6295
17215SOL    HW253087   3.179   3.453   9.143 -1.8269  1.9702  0.6466
17216SOL     OW53088   0.041   2.339  11.155  0.0901 -0.5044  0.3600
17216SOL    HW153089  -0.050   2.346  11.127 -0.1725  3.0870  1.5734
17216SOL    HW253090   0.092   2.360  11.076 -0.0005 -2.9202 -0.4273
17217SOL     OW53091   5.153   2.572   6.127  0.1757 -0.3726 -0.5361
17217SOL    HW153092   5.086   2.515   6.166  1.3424 -1.1150  0.4754
17217SOL    HW253093   5.117   2.660   6.135 -0.5921 -0.7368  0.1848
17218SOL     OW53094   6.786   0.595   7.599 -0.3631 -0.6489 -0.1044
17218SOL    HW153095   6.699   0.617   7.633 -0.6499 -0.2478 -1.0485
17218SOL    HW253096   6.827   0.680   7.583  0.8830 -0.8213  1.9494
17219SOL     OW53097   3.698   5.089   3.174  0.2045 -0.1283  0.3965
17219SOL    HW153098   3.672   5.138   3.252  0.5914  0.4588  0.1688
17219SOL    HW253099   3.788   5.061   3.193  0.5549  0.6218 -0.1141
17220SOL     OW53100   5.129   3.564  12.390  0.1230 -0.0806 -0.1713
17220SOL    HW153101   5.038   3.568  12.360  0.6367 -0.6189 -1.9268
17220SOL    HW253102   5.159   3.655  12.384 -0.7844  0.4401  2.2013
17221SOL     OW53103   5.611   7.471   6.061 -0.1956 -0.3507  0.1756
17221SOL    HW153104   5.616   7.513   5.975  1.2706 -0.4982  0.1643
17221SOL    HW253105   5.518   7.458   6.076 -0.4914 -0.0130 -1.2438
17222SOL     OW53106   3.123   3.255   9.979  0.3231 -0.0440 -0.5743
17222SOL    HW153107   3.098   3.164   9.988  1.2010 -0.1855  1.0099
17222SOL    HW253108   3.211   3.253   9.940  0.7463  0.0427  0.3376
17223SOL     OW53109   3.897   0.159   0.946 -0.7489  0.6931 -0.4626
17223SOL    HW153110   3.869   0.200   0.864 -0.2356  1.0294 -0.4749
17223SOL    HW253111   3.970   0.213   0.977 -0.2424 -0.0464 -0.3301
17224SOL     OW53112   5.264   5.933  10.890 -0.1555  0.3261  0.1575
17224SOL    HW153113   5.251   5.852  10.938 -1.4622 -0.0051 -0.7183
17224SOL    HW253114   5.221   6.000  10.942  0.5574  0.4017  0.6655
17225SOL     OW53115   6.075   5.765   2.670  0.3577  0.3043  0.2723
17225SOL    HW153116   5.980   5.759   2.686 -0.1334  1.7469 -1.6221
17225SOL    HW253117   6.085   5.733   2.580  2.0071 -1.7475  1.1265
17226SOL     OW53118   5.942   4.252   5.304 -0.2527 -1.1971  0.2431
17226SOL    HW153119   5.895   4.333   5.324  3.9696  1.5568  0.2398
17226SOL    HW253120   5.959   4.256   5.209 -0.9357 -2.7322  0.0181
17227SOL     OW53121   0.399   4.326  11.803 -0.1411 -0.1550  0.6795
17227SOL    HW153122   0.316   4.372  11.788 -0.4931 -0.7619  0.7006
17227SOL    HW253123   0.427   4.299  11.716  1.2362  2.0155  0.3845
17228SOL     OW53124   0.954   2.881   3.539  0.1849 -0.3422  0.2882
17228SOL    HW153125   0.882   2.871   3.601 -1.0812 -1.8457 -1.3294
17228SOL    HW253126   0.939   2.967   3.500  1.3759  0.9246  2.4248
17229SOL     OW53127   0.664   3.354   9.036 -0.0397  0.1091  0.4664
17229SOL    HW153128   0.626   3.382   8.953 -0.6599 -1.8050  0.0649
17229SOL    HW253129   0.758   3.370   9.026 -0.2902  1.4331  0.0553
17230SOL     OW53130   7.391   2.381   3.601  0.3613 -0.1998  0.3663
17230SOL    HW153131   7.432   2.462   3.630 -0.4105  0.3893 -0.1472
17230SOL    HW253132   7.416   2.372   3.509 -1.3140  0.6321 -0.2107
17231SOL     OW53133   5.938   2.537   0.539  0.3188  0.4960  0.2933
17231SOL    HW153134   5.881   2.608   0.511  1.4448  1.2442 -0.1721
17231SOL    HW253135   5.960   2.559   0.630  2.2406  1.8827 -0.4222
17232SOL     OW53136   4.800   1.321   1.779 -0.0192 -0.2926 -0.5989
17232SOL    HW153137   4.877   1.266   1.764  0.8321  0.0644  1.8914
17232SOL    HW253138   4.830   1.410   1.761 -0.4978 -0.3286 -1.6478
17233SOL     OW53139   5.560   6.915   7.328 -0.0904 -0.8518  0.1571
17233SOL    HW153140   5.643   6.960   7.343 -0.0052 -1.3246  1.1702
17233SOL    HW253141   5.552   6.853   7.401 -1.9826  0.1200  0.8521
17234SOL     OW53142   3.854   2.211   6.965  0.1118  0.2183 -0.2282
17234SOL    HW153143   3.944   2.179   6.974 -0.2757 -1.1153 -0.8577
17234SOL    HW253144   3.801   2.132   6.955 -1.3184  0.9013  1.4725
17235SOL     OW53145   6.506   5.492   3.692  0.1200 -0.2588 -0.0660
17235SOL    HW153146   6.495   5.587   3.698 -0.9825 -0.4197  0.7878
17235SOL    HW253147   6.582   5.473   3.747 -0.4897 -0.0071  0.8795
17236SOL     OW53148   1.698   7.489  12.403 -0.3428  0.3157 -0.0082
17236SOL    HW153149   1.604   7.471  12.414 -0.8391 -0.0232 -3.7120
17236SOL    HW253150   1.701   7.581  12.376  0.7036  1.0694  2.4299
17237SOL     OW53151   3.068   4.959  10.437  0.6438 -0.2493  0.6177
17237SOL    HW153152   3.064   4.885  10.496  1.2439 -0.2676  0.6386
17237SOL    HW253153   3.029   5.031  10.486 -1.6894 -0.9579 -0.0630
17238SOL     OW53154   2.894   2.227   4.894  0.1984 -0.1832  0.2247
17238SOL    HW153155   2.909   2.321   4.904  0.9528 -0.2414 -0.2618
17238SOL    HW253156   2.974   2.195   4.851  0.1353 -1.1139  0.7895
17239SOL     OW53157   6.114   2.549   4.824  0.1579 -0.4701  0.4650
17239SOL    HW153158   6.059   2.480   4.862 -0.5331 -0.3960 -0.3598
17239SOL    HW253159   6.052   2.621   4.806  0.5348 -0.3647 -0.4341
17240SOL     OW53160   3.456   2.985   2.227 -0.5012  0.1161  0.3273
17240SOL    HW153161   3.386   2.924   2.203 -1.1299  1.3698 -1.1174
17240SOL    HW253162   3.422   3.071   2.205 -0.0580  1.1773  3.3019
17241SOL     OW53163   5.084   6.499   6.955 -0.0277 -0.4310 -0.0020
17241SOL    HW153164   5.113   6.485   6.865 -1.0808 -1.0289 -0.2630
17241SOL    HW253165   5.154   6.551   6.995  1.3524 -1.7357 -0.6201
17242SOL     OW53166   0.202   0.025  12.390 -0.1775 -0.1155 -0.0824
17242SOL    HW153167   0.233   0.113  12.366 -1.0131  0.0437 -0.6232
17242SOL    HW253168   0.283  -0.024  12.406  0.3061  0.7499  0.2460
17243SOL     OW53169   3.827   1.033   3.517  0.2031 -0.4897  0.0186
17243SOL    HW153170   3.844   0.941   3.495  2.1129 -0.0210 -0.7233
17243SOL    HW253171   3.865   1.082   3.444 -0.0324  0.9144  0.8066
17244SOL     OW53172   0.044   6.796   2.399  0.2437 -0.3992 -0.1586
17244SOL    HW153173  -0.032   6.767   2.349 -1.3126  0.4900  1.5610
17244SOL    HW253174   0.015   6.792   2.491  1.9740  0.8271  0.4952
17245SOL     OW53175   6.529   4.024  12.037 -0.7127 -0.5142 -0.1923
17245SOL    HW153176   6.454   3.992  11.989 -0.9737  0.9754 -0.8352
17245SOL    HW253177   6.605   3.985  11.993 -1.0024 -0.0156 -1.1628
17246SOL     OW53178   6.675   7.828   8.751 -0.2823 -0.4210 -0.3458
17246SOL    HW153179   6.606   7.850   8.814  2.2114  1.9045  1.7676
17246SOL    HW253180   6.743   7.785   8.803  1.9400  1.7258 -1.2774
17247SOL     OW53181   1.195   5.496   5.014 -0.6294 -0.2611  0.8870
17247SOL    HW153182   1.169   5.405   5.025  1.3338 -0.8207  1.2509
17247SOL    HW253183   1.246   5.517   5.093  1.4316  0.1911 -0.4805
17248SOL     OW53184   2.052   4.385   2.972 -0.2160 -0.3088 -0.4166
17248SOL    HW153185   2.135   4.426   2.951 -0.4589 -0.0440 -0.8767
17248SOL    HW253186   2.021   4.349   2.889 -1.1485  0.6790 -0.5099
17249SOL     OW53187   3.448   7.790   4.971  0.5509  0.1504 -0.0204
17249SOL    HW153188   3.442   7.697   4.950  0.3103  0.4403 -1.3166
17249SOL    HW253189   3.358   7.823   4.963  0.9402  0.9080 -1.7330
17250SOL     OW53190   2.752   5.539  12.421  0.3054  0.5050 -0.5113
17250SOL    HW153191   2.696   5.595  12.475 -1.4616  0.1108 -1.8697
17250SOL    HW253192   2.803   5.601  12.368  0.0324  0.8549 -0.3700
17251SOL     OW53193   2.043   5.500  11.216 -0.1955  0.4515 -0.4869
17251SOL    HW153194   2.116   5.539  11.264 -1.8269  0.3591  2.3146
17251SOL    HW253195   1.965   5.542  11.253 -1.7831 -2.2608 -0.4741
17252SOL     OW53196   5.705   7.930   7.726 -0.1599  0.1157 -0.2400
17252SOL    HW153197   5.735   7.932   7.635 -0.9858  1.6451 -0.5016
17252SOL    HW253198   5.676   8.020   7.744  0.4948 -0.0119  1.7074
17253SOL     OW53199   6.123   3.375   7.986  0.0224 -0.3201  0.3068
17253SOL    HW153200   6.101   3.418   7.903 -0.5158 -1.1463  0.0054
17253SOL    HW253201   6.042   3.330   8.012  0.5526 -1.1132  0.6206
17254SOL     OW53202   4.360   2.127   8.955  0.6827  0.3185  0.3312
17254SOL    HW153203   4.415   2.205   8.947  0.2132  0.5444 -0.8042
17254SOL    HW253204   4.289   2.154   9.014  0.2289  0.9307 -0.4785
17255SOL     OW53205   6.805   0.533  11.093  0.5141  0.0153  0.7433
17255SOL    HW153206   6.867   0.601  11.066 -0.1340 -0.1495 -1.3514
17255SOL    HW253207   6.813   0.465  11.026 -0.5548 -0.8806  1.4876
17256SOL     OW53208   7.186   6.749   4.668 -0.0639  0.4620  0.5491
17256SOL    HW153209   7.220   6.661   4.680  1.3625  0.9436  0.2622
17256SOL    HW253210   7.091   6.738   4.665  0.1150 -1.1519 -0.2354
17257SOL     OW53211   7.052   4.314   5.687 -0.1109 -0.4626 -0.1552
17257SOL    HW153212   7.077   4.309   5.595  0.8613  0.0349  0.0675
17257SOL    HW253213   6.962   4.344   5.686  0.7455  2.4197 -0.9167
17258SOL     OW53214   0.955   1.680  11.913 -0.3049 -0.1645  0.2125
17258SOL    HW153215   0.907   1.663  11.832  0.7713 -0.2984 -0.4054
17258SOL    HW253216   1.033   1.728  11.885 -1.2491  2.3177  1.4484
17259SOL     OW53217   7.401   5.463   8.094 -0.7459  0.1330  0.1964
17259SOL    HW153218   7.481   5.422   8.129  0.2824  0.9661 -1.0624
17259SOL    HW253219   7.335   5.394   8.097  0.4280 -1.0507 -0.1155
17260SOL     OW53220   0.453   7.839   5.105  0.4616  0.3929  0.1060
17260SOL    HW153221   0.419   7.783   5.035  0.4555 -0.3450  0.6815
17260SOL    HW253222   0.430   7.928   5.079 -0.3810  0.0454 -0.3591
17261SOL     OW53223   2.816   0.907   0.258  0.0498  0.4369  0.1989
17261SOL    HW153224   2.759   0.833   0.280  0.4835 -0.2736 -1.0057
17261SOL    HW253225   2.755   0.979   0.240 -0.3680  0.4928  1.6716
17262SOL     OW53226   6.427   4.649   5.962  0.1905 -0.5865 -0.1962
17262SOL    HW153227   6.453   4.604   5.882 -0.0464  0.4759 -0.8854
17262SOL    HW253228   6.331   4.648   5.960  0.1838 -0.3186 -0.0609
17263SOL     OW53229   7.041   5.476   5.537  0.2762 -0.3433 -0.2954
17263SOL    HW153230   6.979   5.510   5.601  0.9581 -1.5966  1.0946
17263SOL    HW253231   6.988   5.418   5.482  0.1742 -1.4633  0.9246
17264SOL     OW53232   7.770   7.034   8.598  0.3592 -0.2996 -0.4660
17264SOL    HW153233   7.711   6.970   8.636  1.0023 -0.4825  0.2660
17264SOL    HW253234   7.753   7.115   8.647  0.2350 -0.1768 -0.7137
17265SOL     OW53235   1.430   7.486   5.686 -0.4506  0.6851 -0.3070
17265SOL    HW153236   1.370   7.471   5.759  1.3977 -0.6061  1.0248
17265SOL    HW253237   1.443   7.581   5.686 -0.9409  0.7714  0.6701
17266SOL     OW53238   4.054   0.869  11.102 -0.3152  0.5946 -0.0323
17266SOL    HW153239   4.092   0.931  11.163 -1.0609  0.1730  0.9039
17266SOL    HW253240   4.125   0.809  11.080  0.4041  1.7503 -0.9426
17267SOL     OW53241   1.758   0.906   8.155  0.6456  0.0790 -0.1902
17267SOL    HW153242   1.838   0.952   8.129  0.8574  0.6164  1.3580
17267SOL    HW253243   1.689   0.952   8.108  0.5162  3.7615  3.0849
17268SOL     OW53244   1.825   1.289  12.304  0.3378  0.3875  0.1023
17268SOL    HW153245   1.905   1.342  12.300 -0.0811  0.9710 -1.1477
17268SOL    HW253246   1.755   1.352  12.321 -0.0333  0.0968 -0.3118
17269SOL     OW53247   7.957   7.187   9.151 -0.4780 -0.6814  0.1591
17269SOL    HW153248   7.868   7.159   9.173 -1.0875  1.6377  0.8615
17269SOL    HW253249   7.972   7.152   9.063 -2.4888 -0.2227 -0.4091
17270SOL     OW53250   7.878   2.111   7.510 -0.5347  1.0116  0.0330
17270SOL    HW153251   7.942   2.050   7.545 -1.7644 -0.6194 -0.4257
17270SOL    HW253252   7.822   2.134   7.585 -0.8916  0.4888 -0.0691
17271SOL     OW53253   3.642   6.239  10.313 -0.6859 -0.3122  0.0155
17271SOL    HW153254   3.721   6.292  10.322 -1.9902  1.4273  2.0129
17271SOL    HW253255   3.625   6.237  10.219  0.3970  1.3096 -0.2507
17272SOL     OW53256   5.436   7.759   1.751  0.3477 -0.0320  0.3590
17272SOL    HW153257   5.501   7.817   1.791  2.1180 -1.3013 -0.5332
17272SOL    HW253258   5.375   7.818   1.708  1.9702  1.2110 -0.3578
17273SOL     OW53259   7.151   0.835   2.884  0.3583 -0.7066  0.4396
17273SOL    HW153260   7.059   0.831   2.910  0.0772 -2.5432 -0.6399
17273SOL    HW253261   7.161   0.923   2.846 -0.9985 -0.5457  0.3997
17274SOL     OW53262   5.730   6.331   7.416  0.3942  0.7728  0.0370
17274SOL    HW153263   5.700   6.402   7.360 -1.3826  0.9450  1.1383
17274SOL    HW253264   5.709   6.359   7.505  0.3167 -0.7939  0.5596
17275SOL     OW53265   7.782   7.864   6.919 -0.2808  0.6974 -0.0419
17275SOL    HW153266   7.729   7.937   6.951  1.1738  1.8982 -0.2514
17275SOL    HW253267   7.742   7.786   6.958 -1.0149  1.7351  1.3489
17276SOL     OW53268   6.883   3.072   1.974 -0.4808  0.4563  0.1830
17276SOL    HW153269   6.945   3.128   1.928 -0.8692  0.2717 -0.5874
17276SOL    HW253270   6.893   3.095   2.066 -0.3399  1.4850 -0.0826
17277SOL     OW53271   1.013   4.854   0.493  0.0349 -0.2081  0.2523
17277SOL    HW153272   1.016   4.949   0.478  0.1423 -0.3571 -0.7804
17277SOL    HW253273   0.937   4.825   0.442  1.3828 -0.9740 -1.4473
17278SOL     OW53274   7.243   7.833   5.749  0.1020 -0.3434  0.5483
17278SOL    HW153275   7.337   7.850   5.753 -0.0199  0.2593  1.4926
17278SOL    HW253276   7.204   7.908   5.796 -0.7113 -1.5425  1.8695
17279SOL     OW53277   4.857   7.706   3.335  0.0757 -0.2466 -0.3410
17279SOL    HW153278   4.868   7.743   3.247  0.2054 -2.2251 -1.2270
17279SOL    HW253279   4.935   7.653   3.348 -0.8014 -1.4762  0.1425
17280SOL     OW53280   6.550   1.752   5.146 -0.1916  0.2289  0.8348
17280SOL    HW153281   6.602   1.722   5.221 -0.0439 -0.4252  0.4847
17280SOL    HW253282   6.608   1.810   5.097  0.1957 -0.4440  0.4828
17281SOL     OW53283   1.230   3.734   9.142 -0.1837 -0.5062 -0.0309
17281SOL    HW153284   1.286   3.684   9.201 -1.0227 -0.9343  0.4237
17281SOL    HW253285   1.254   3.703   9.054  1.3646  0.4366  0.0359
17282SOL     OW53286   5.241   6.325   9.206  0.1531 -0.1710 -0.0937
17282SOL    HW153287   5.303   6.360   9.144  0.1151 -2.1109 -1.3142
17282SOL    HW253288   5.172   6.286   9.152 -1.2915  0.4688  1.2053
17283SOL     OW53289   6.344   6.128   1.182 -0.0283  0.1892 -0.2595
17283SOL    HW153290   6.378   6.176   1.257 -0.4700 -0.2397  0.2186
17283SOL    HW253291   6.339   6.194   1.112 -1.2106  0.9946  0.5530
17284SOL     OW53292   2.261   6.756   5.023  0.6550 -0.0930 -0.3049
17284SOL    HW153293   2.315   6.678   5.033  1.8913  0.7621 -0.1197
17284SOL    HW253294   2.223   6.770   5.110  2.6479  1.0652  0.4352
17285SOL     OW53295   0.018   7.173  11.901  0.3086  0.0287  0.0701
17285SOL    HW153296  -0.072   7.188  11.872  0.2145 -1.8138 -0.7895
17285SOL    HW253297   0.061   7.134  11.824  1.6363  0.2207  0.6958
17286SOL     OW53298   0.779   3.747   5.849  0.1713 -0.3002 -0.2851
17286SOL    HW153299   0.814   3.674   5.797 -1.7554 -1.8197  0.4192
17286SOL    HW253300   0.788   3.718   5.940  2.3991  1.8154  0.2808
17287SOL     OW53301   6.375   3.164   1.228  0.4687 -0.0021  0.1984
17287SOL    HW153302   6.347   3.201   1.144 -0.1794 -2.0803 -0.5563
17287SOL    HW253303   6.343   3.227   1.293  0.2581  1.2397 -1.0465
17288SOL     OW53304   3.077   6.630   8.059 -0.3793 -0.0060 -0.0925
17288SOL    HW153305   3.074   6.565   8.129  0.0712 -0.2504 -0.2972
17288SOL    HW253306   3.085   6.578   7.979  1.1020  0.3091 -0.1826
17289SOL     OW53307   6.568   6.972   1.936 -0.3419  0.7343  0.2706
17289SOL    HW153308   6.600   6.925   2.013  2.8224  1.2983 -0.5764
17289SOL    HW253309   6.572   6.907   1.865 -0.3170  1.0320 -0.0031
17290SOL     OW53310   2.178   1.009   5.019  0.1238 -0.0231  0.5344
17290SOL    HW153311   2.180   1.008   4.924 -0.1435  0.0145  0.5298
17290SOL    HW253312   2.089   1.035   5.042 -0.3177 -1.6098  0.7900
17291SOL     OW53313   7.820   6.375   2.576 -0.1603  0.1805 -0.6664
17291SOL    HW153314   7.906   6.391   2.615  0.1141 -0.4864 -0.9865
17291SOL    HW253315   7.763   6.354   2.650  0.5560 -1.9559 -0.6699
17292SOL     OW53316   1.304   5.314  10.107 -0.0157  0.1420  0.1845
17292SOL    HW153317   1.344   5.323  10.021  0.1697  1.4455  0.3973
17292SOL    HW253318   1.343   5.383  10.160  0.3905 -1.0726  1.5383
17293SOL     OW53319   6.661   1.590   8.484  0.2111 -0.3129  0.2504
17293SOL    HW153320   6.685   1.641   8.407  1.3803 -1.9012 -0.4929
17293SOL    HW253321   6.584   1.540   8.456 -0.0478 -0.0487  0.4896
17294SOL     OW53322   4.303   7.890   9.667 -0.1793  0.3497  0.2341
17294SOL    HW153323   4.385   7.871   9.620  0.8528  0.4398  1.9323
17294SOL    HW253324   4.267   7.966   9.622  0.8802  0.5568 -0.2992
17295SOL     OW53325   1.422   0.519   3.579 -0.2178  0.1365  0.3377
17295SOL    HW153326   1.404   0.481   3.665  2.0038 -2.0246 -0.0269
17295SOL    HW253327   1.367   0.470   3.518 -0.1666  0.1559  0.2755
17296SOL     OW53328   3.839   2.418  11.565 -0.5996  0.1856 -0.6381
17296SOL    HW153329   3.843   2.504  11.608 -0.8472  0.0169 -0.2782
17296SOL    HW253330   3.763   2.424  11.508 -0.8213  0.0865 -0.3543
17297SOL     OW53331   6.086   7.451   3.183  0.1648  0.3854 -0.1903
17297SOL    HW153332   6.121   7.534   3.216  1.2096 -0.7425  1.6799
17297SOL    HW253333   6.047   7.410   3.259  0.9706 -1.4913 -0.7453
17298SOL     OW53334   1.919   6.599   1.895  0.9327  0.5592 -0.1343
17298SOL    HW153335   1.867   6.663   1.847 -1.6868 -1.8004 -0.7050
17298SOL    HW253336   1.899   6.616   1.987  0.5088  0.7182 -0.2565
17299SOL     OW53337   6.763   6.245   1.766 -0.2719  0.6000  0.4235
17299SOL    HW153338   6.729   6.332   1.747 -1.3853  0.3899  1.3488
17299SOL    HW253339   6.689   6.198   1.805  0.1278 -0.9571 -0.6044
17300SOL     OW53340   2.282   2.788   5.815 -0.1182 -0.0891 -0.2507
17300SOL    HW153341   2.329   2.776   5.897  0.3050  0.6734 -0.3718
17300SOL    HW253342   2.292   2.705   5.769  1.4676  0.1737 -0.4428
17301SOL     OW53343   6.890   1.082  10.765 -0.0419 -0.2199  0.1216
17301SOL    HW153344   6.984   1.066  10.769 -0.0224 -0.0146  0.6388
17301SOL    HW253345   6.883   1.174  10.738 -0.1197 -0.5957 -1.1658
17302SOL     OW53346   6.420   7.706   8.051  0.6538  0.4652  0.0562
17302SOL    HW153347   6.342   7.702   8.107  0.5612  0.7976 -0.0459
17302SOL    HW253348   6.493   7.695   8.112  0.5033 -0.9313  0.0152
17303SOL     OW53349   0.029   7.453  12.425 -0.2360  0.2248 -0.0769
17303SOL    HW153350   0.123   7.471  12.422 -0.0560 -0.4146  1.1290
17303SOL    HW253351   0.013   7.421  12.514 -1.3427 -1.0820 -0.7069
17304SOL     OW53352   1.548   1.645   2.180 -0.5020 -0.1221 -0.2239
17304SOL    HW153353   1.625   1.702   2.177 -0.7133  0.1328 -1.1782
17304SOL    HW253354   1.553   1.595   2.098 -2.3352  1.2254 -1.2439
17305SOL     OW53355   0.872   0.128   1.767 -0.0603 -0.0179 -0.0869
17305SOL    HW153356   0.906   0.040   1.782 -0.1681 -0.0156  0.1765
17305SOL    HW253357   0.785   0.128   1.807  0.3532  0.5184  0.8632
17306SOL     OW53358   3.963   3.999   7.072  0.3633  0.3414  0.5160
17306SOL    HW153359   3.959   4.008   6.977 -0.2417  0.1560  0.5162
17306SOL    HW253360   4.020   3.924   7.086  0.4946  0.3998  0.2981
17307SOL     OW53361   0.651   2.201   5.208 -0.7116  0.0685 -0.0310
17307SOL    HW153362   0.614   2.166   5.127 -0.4176  1.8858 -0.9919
17307SOL    HW253363   0.746   2.198   5.195 -0.6469  3.1155 -1.0958
17308SOL     OW53364   5.372   3.831   6.629 -0.4081  0.5224 -0.2040
17308SOL    HW153365   5.314   3.901   6.658 -1.0521  0.3916 -1.1169
17308SOL    HW253366   5.398   3.857   6.541  1.6486  1.0064  0.4898
17309SOL     OW53367   0.911   6.776   3.768  0.2501 -0.0768 -0.1719
17309SOL    HW153368   1.004   6.783   3.790  0.8501 -0.2803 -2.3937
17309SOL    HW253369   0.888   6.686   3.791 -0.0208  0.5637  2.3570
17310SOL     OW53370   4.752   1.091   7.460  0.1185  0.0711 -0.1457
17310SOL    HW153371   4.732   0.998   7.471 -1.2550  0.4291  0.6862
17310SOL    HW253372   4.669   1.129   7.430  0.6653  1.0370 -0.4515
17311SOL     OW53373   4.515   7.175   2.734  0.2588 -0.0479 -0.2387
17311SOL    HW153374   4.557   7.090   2.747  2.1202  0.6693 -1.1288
17311SOL    HW253375   4.452   7.159   2.663 -1.0571 -1.1452  1.1075
17312SOL     OW53376   5.338   2.198   8.066 -0.5967  0.0452 -0.3449
17312SOL    HW153377   5.253   2.186   8.024 -1.0809  0.7909  0.4026
17312SOL    HW253378   5.328   2.157   8.152 -0.1075 -0.1017 -0.3519
17313SOL     OW53379   5.199   1.747   0.265 -0.6584  0.6134 -0.0069
17313SOL    HW153380   5.176   1.771   0.176 -1.6036 -0.1279  0.0231
17313SOL    HW253381   5.118   1.758   0.315 -0.5057 -0.3045  0.4746
17314SOL     OW53382   1.468   6.066  11.740  0.5291 -0.3506  0.5265
17314SOL    HW153383   1.447   5.988  11.689  0.5990  0.3550 -0.6172
17314SOL    HW253384   1.493   6.033  11.826  0.2712 -1.5628  0.1466
17315SOL     OW53385   7.869   4.252  10.691 -0.2332  0.4698  0.1396
17315SOL    HW153386   7.860   4.185  10.759  0.4909 -1.5644 -1.6295
17315SOL    HW253387   7.804   4.318  10.714 -1.8704 -1.4251  1.3558
17316SOL     OW53388   4.274   0.810   6.109  0.0443  0.7311  0.8509
17316SOL    HW153389   4.272   0.737   6.170  3.6163  1.2134  1.8189
17316SOL    HW253390   4.191   0.806   6.062 -0.9722 -2.3244  2.6700
17317SOL     OW53391   2.972   6.888   5.367 -0.2538 -0.4109  0.2572
17317SOL    HW153392   2.913   6.959   5.394 -0.8863 -0.6174 -0.5251
17317SOL    HW253393   2.913   6.816   5.343  0.1037  0.2592 -3.0970
17318SOL     OW53394   7.576   3.664  10.526 -0.4254  0.1487 -0.3266
17318SOL    HW153395   7.549   3.575  10.548 -0.0511  0.5521  2.0553
17318SOL    HW253396   7.660   3.675  10.571  0.4991  1.0938 -2.1811
17319SOL     OW53397   6.253   3.148   2.945  0.0988 -0.5566 -0.0249
17319SOL    HW153398   6.285   3.155   2.855 -0.8713  0.9285 -0.2861
17319SOL    HW253399   6.158   3.144   2.937  0.0612 -2.4541  0.8627
17320SOL     OW53400   7.389   6.288   0.506  0.5047 -0.1768 -0.2133
17320SOL    HW153401   7.459   6.323   0.451  0.6330 -1.0524 -0.6341
17320SOL    HW253402   7.410   6.316   0.595 -0.6409  2.8139 -0.7536
17321SOL     OW53403   5.813   4.951   6.330  0.2573 -0.4282 -0.3135
17321SOL    HW153404   5.807   5.036   6.287  0.6853 -0.5534 -0.6282
17321SOL    HW253405   5.797   4.887   6.260  0.0554 -0.6085 -0.1030
17322SOL     OW53406   7.976   7.555   9.699  0.4064  0.1443  0.1783
17322SOL    HW153407   7.901   7.613   9.711  1.3440  0.9645  2.7209
17322SOL    HW253408   7.947   7.470   9.731 -0.2949 -0.3209 -1.5716
17323SOL     OW53409   2.614   1.449   1.478 -0.0547 -0.0647 -0.0335
17323SOL    HW153410   2.624   1.362   1.517 -0.3207 -1.4788 -2.8778
17323SOL    HW253411   2.654   1.508   1.542 -0.0672 -2.2115  2.1175
17324SOL     OW53412   1.300   7.803   3.138  0.0242 -0.2330  0.1034
17324SOL    HW153413   1.345   7.854   3.071 -0.1604 -0.0942  0.0831
17324SOL    HW253414   1.207   7.818   3.121 -0.0975 -1.9697 -1.0188
17325SOL     OW53415   5.937   3.109   1.766 -0.2731  0.1766 -0.5258
17325SOL    HW153416   5.857   3.162   1.763  1.2945  2.8410  0.9333
17325SOL    HW253417   5.952   3.094   1.859  0.2003 -1.5580 -0.8458
17326SOL     OW53418   6.094   2.696   9.155 -0.1926  0.5690 -1.0430
17326SOL    HW153419   6.052   2.612   9.135  1.6281 -1.4037  2.3915
17326SOL    HW253420   6.132   2.683   9.242  2.7677  4.0003 -1.5984
17327SOL     OW53421   6.535   0.338   3.326 -0.3985 -0.1707  0.5739
17327SOL    HW153422   6.465   0.366   3.267 -1.6561 -3.5244  0.2084
17327SOL    HW253423   6.607   0.314   3.267 -0.4865 -0.5533  0.6178
17328SOL     OW53424   1.605   3.360   7.801  0.0914 -0.3975 -0.5177
17328SOL    HW153425   1.559   3.295   7.854 -0.4706  1.5250  1.5204
17328SOL    HW253426   1.628   3.429   7.864  1.1180  1.1169 -2.4699
17329SOL     OW53427   4.745   0.495   6.888  0.3802 -0.0323  0.1959
17329SOL    HW153428   4.694   0.433   6.939 -1.4993 -0.6350 -2.2397
17329SOL    HW253429   4.685   0.568   6.872  2.0642  1.8063  1.6949
17330SOL     OW53430   4.761   4.164   5.182  0.0684  0.0743 -0.1835
17330SOL    HW153431   4.783   4.256   5.194 -0.8490  0.4377 -1.1408
17330SOL    HW253432   4.846   4.120   5.173  0.6122  0.4739  2.3937
17331SOL     OW53433   0.540   0.942   8.768  0.1533 -0.9564 -0.6192
17331SOL    HW153434   0.517   0.998   8.842 -1.4926 -0.8851 -1.1373
17331SOL    HW253435   0.626   0.971   8.741 -0.6602  1.3915 -0.8975
17332SOL     OW53436   3.342   5.968   5.468  0.3898 -0.2628  0.4145
17332SOL    HW153437   3.397   5.996   5.396  0.8457 -1.7218  0.1555
17332SOL    HW253438   3.257   5.950   5.428  0.5877 -0.8858  0.2662
17333SOL     OW53439   5.317   2.765  11.315  0.0855 -0.1120 -0.0525
17333SOL    HW153440   5.350   2.696  11.257 -2.0331 -1.4657  0.2385
17333SOL    HW253441   5.380   2.767  11.387  0.4126 -1.4814 -0.2605
17334SOL     OW53442   2.535   6.896   8.212  0.4240  0.5282 -0.6128
17334SOL    HW153443   2.591   6.824   8.183  0.9985  0.4432  0.6503
17334SOL    HW253444   2.594   6.971   8.219  0.6135  0.2379  1.5570
17335SOL     OW53445   2.755   2.556   9.443 -0.0741 -0.0763 -0.8099
17335SOL    HW153446   2.746   2.627   9.379 -1.4726  0.4507 -0.0678
17335SOL    HW253447   2.665   2.536   9.469  0.4503 -0.4114  0.8453
17336SOL     OW53448   1.819   3.561   6.758 -0.0762 -0.2829 -0.1678
17336SOL    HW153449   1.745   3.574   6.699  1.5703  2.8725 -1.7570
17336SOL    HW253450   1.806   3.626   6.827  0.4949 -0.6714  0.3121
17337SOL     OW53451   1.055   7.637   1.198 -0.6451  0.0134 -0.0109
17337SOL    HW153452   1.137   7.683   1.178 -1.1963  0.6969 -0.7719
17337SOL    HW253453   1.067   7.550   1.160 -0.2176  0.0613  0.0077
17338SOL     OW53454   1.873   0.206  11.667 -0.3427  0.0512 -0.7267
17338SOL    HW153455   1.903   0.210  11.577 -1.5480  1.0888 -1.1146
17338SOL    HW253456   1.948   0.233  11.719 -0.0869  0.9830 -1.5413
17339SOL     OW53457   0.312   1.125   8.156 -0.8011  0.2934 -0.2139
17339SOL    HW153458   0.350   1.212   8.165 -1.2230  0.3131  1.8316
17339SOL    HW253459   0.277   1.105   8.243 -1.7142 -1.4548 -0.9392
17340SOL     OW53460   7.435   1.765   1.910  0.4329  0.0817 -0.3328
17340SOL    HW153461   7.356   1.715   1.931  0.6251 -0.2793 -0.4576
17340SOL    HW253462   7.502   1.698   1.895  0.6152  0.3727 -0.8124
17341SOL     OW53463   6.081   6.373   5.503 -0.0328  0.5597  0.1106
17341SOL    HW153464   6.087   6.425   5.583  1.1433 -0.6917  0.8920
17341SOL    HW253465   6.103   6.284   5.531 -0.2947 -0.0414 -1.4857
17342SOL     OW53466   2.589   5.224   5.224  0.5088 -0.1462 -0.3286
17342SOL    HW153467   2.550   5.192   5.305 -0.0922  1.5923  0.1017
17342SOL    HW253468   2.672   5.177   5.217  0.3971 -0.6002  1.0788
17343SOL     OW53469   5.866   7.101   0.305 -0.7513  0.1642 -0.1506
17343SOL    HW153470   5.911   7.021   0.332 -1.9203 -0.8287 -1.0482
17343SOL    HW253471   5.810   7.123   0.380 -0.1022  0.4194  0.2741
17344SOL     OW53472   6.150   4.791   1.446 -0.2011 -0.2587 -0.6834
17344SOL    HW153473   6.211   4.755   1.510 -1.4943 -1.7310 -0.2270
17344SOL    HW253474   6.132   4.718   1.387 -0.7406  0.4490 -1.4163
17345SOL     OW53475   1.844   2.266   7.554 -0.3592 -0.0045 -0.8291
17345SOL    HW153476   1.858   2.328   7.625 -1.2838  0.3214 -0.9247
17345SOL    HW253477   1.791   2.196   7.592 -1.6343  0.6133 -1.4044
17346SOL     OW53478   3.274   2.195   1.263 -0.0841 -0.1367  0.2216
17346SOL    HW153479   3.198   2.236   1.222 -0.2969 -1.1275 -0.4162
17346SOL    HW253480   3.344   2.260   1.253 -0.9973  1.0918  1.4699
17347SOL     OW53481   0.733   1.742  11.110 -0.9343 -0.1177  0.3447
17347SOL    HW153482   0.802   1.679  11.129 -1.4149 -0.4740  0.9581
17347SOL    HW253483   0.723   1.793  11.191 -1.0468  0.2650  0.0956
17348SOL     OW53484   4.889   3.843   2.618 -0.5998 -0.1872 -0.0577
17348SOL    HW153485   4.889   3.860   2.712 -1.7738 -0.3022 -0.0263
17348SOL    HW253486   4.973   3.878   2.588 -0.8922  1.3292  0.7776
17349SOL     OW53487   5.002   0.818   1.469 -0.5664  0.4159  0.2470
17349SOL    HW153488   4.908   0.810   1.488 -0.5914  2.0043  1.0064
17349SOL    HW253489   5.009   0.801   1.375 -1.4788 -0.6029  0.3432
17350SOL     OW53490   6.172   0.118   1.983  0.9422 -0.3805 -0.3190
17350SOL    HW153491   6.196   0.110   2.076  2.6820  0.1497 -0.6787
17350SOL    HW253492   6.087   0.163   1.984  1.6434  1.0280  1.0129
17351SOL     OW53493   0.379   3.314   7.760  0.7381  0.1879  0.7044
17351SOL    HW153494   0.376   3.335   7.853 -0.2542  0.6548  0.5732
17351SOL    HW253495   0.288   3.320   7.730  0.9348 -0.6761 -0.1385
17352SOL     OW53496   6.801   5.948   3.065  0.2190 -0.0341  0.1306
17352SOL    HW153497   6.860   5.965   2.992 -0.0461 -1.3909 -0.4271
17352SOL    HW253498   6.713   5.963   3.030 -0.1008 -3.1485 -0.6622
17353SOL     OW53499   3.436   5.008   3.264 -0.0804  0.4977 -0.6786
17353SOL    HW153500   3.529   5.010   3.283  0.5469 -0.7573 -3.1462
17353SOL    HW253501   3.420   4.919   3.230 -2.2406  0.5806 -0.0619
17354SOL     OW53502   6.280   5.218   8.352  0.4068 -0.2582 -0.0241
17354SOL    HW153503   6.244   5.149   8.406 -1.6652  0.5422 -0.2821
17354SOL    HW253504   6.333   5.271   8.412  1.2025 -1.4705  0.3726
17355SOL     OW53505   3.639   5.049  10.604  0.5995 -0.1899  0.0690
17355SOL    HW153506   3.683   4.991  10.666  2.5962  0.8173 -0.3234
17355SOL    HW253507   3.694   5.128  10.602 -0.3188  0.4637 -1.7363
17356SOL     OW53508   7.732   2.013  11.344 -0.3897 -0.1965 -0.8936
17356SOL    HW153509   7.697   2.026  11.432  0.2347  0.0665 -0.6805
17356SOL    HW253510   7.714   1.921  11.325  0.1414 -0.4574 -0.1851
17357SOL     OW53511   4.082   1.746   1.021 -0.7733  0.2234 -0.2217
17357SOL    HW153512   4.140   1.717   0.950 -1.8143  0.2795 -1.1288
17357SOL    HW253513   3.996   1.755   0.979 -1.6481 -0.7546  1.2696
17358SOL     OW53514   3.201   5.457   6.469 -0.5918  0.3935  0.1997
17358SOL    HW153515   3.249   5.536   6.444  1.8021 -0.6647  1.1558
17358SOL    HW253516   3.227   5.442   6.560 -1.0414 -1.4658  0.0451
17359SOL     OW53517   7.363   2.113   5.521  0.5015 -0.1776  0.3783
17359SOL    HW153518   7.405   2.128   5.606  1.6797  0.6212 -0.3059
17359SOL    HW253519   7.270   2.129   5.536  0.5719 -0.8392  1.6858
17360SOL     OW53520   4.664   3.240  11.834  0.1903 -0.1169  0.1893
17360SOL    HW153521   4.620   3.314  11.875 -0.6210 -0.5373  0.0922
17360SOL    HW253522   4.698   3.275  11.752  0.3309  0.2934  0.4197
17361SOL     OW53523   4.237   3.567  10.703  0.0722 -0.3043  0.0309
17361SOL    HW153524   4.273   3.492  10.750  1.8410  0.2800 -0.3032
17361SOL    HW253525   4.302   3.636  10.716 -2.4003  1.8217  1.9283
17362SOL     OW53526   0.187   4.699   8.594 -0.5564  0.2637  0.4390
17362SOL    HW153527   0.241   4.713   8.672  1.6189  2.7389 -1.3121
17362SOL    HW253528   0.218   4.616   8.558 -0.9118 -0.4266  1.6491
17363SOL     OW53529   6.040   0.448  10.631 -0.2829  0.0894 -0.1608
17363SOL    HW153530   5.985   0.395  10.573  0.1907  0.4451 -0.9472
17363SOL    HW253531   6.007   0.537  10.621  0.7588  0.3936 -1.0406
17364SOL     OW53532   7.350   5.530   2.051  0.2758 -0.8843  0.2447
17364SOL    HW153533   7.431   5.518   2.001  0.0944  0.5541 -0.4528
17364SOL    HW253534   7.283   5.490   1.996  0.1243  0.4037 -0.5246
17365SOL     OW53535   3.613   6.769  11.472  0.2968 -0.1111  0.7322
17365SOL    HW153536   3.686   6.779  11.412 -0.5048 -1.0163 -0.4356
17365SOL    HW253537   3.559   6.846  11.457 -0.3111 -0.7158 -0.3371
17366SOL     OW53538   4.574   5.255   4.678 -0.5831 -0.3802  0.0196
17366SOL    HW153539   4.627   5.200   4.735  0.9800  0.1007 -0.9076
17366SOL    HW253540   4.504   5.197   4.647 -0.9025 -0.8971  1.6315
17367SOL     OW53541   4.208   1.091   9.409 -0.0852 -0.1873 -0.0328
17367SOL    HW153542   4.232   1.081   9.316 -1.8616  0.0078 -0.5419
17367SOL    HW253543   4.116   1.067   9.413  0.0531 -0.5427  1.7784
17368SOL     OW53544   0.863   3.428   9.396 -0.0800  1.0243 -0.0719
17368SOL    HW153545   0.770   3.418   9.375 -0.5391  0.8680  1.8474
17368SOL    HW253546   0.896   3.489   9.331 -1.6494  1.4850 -0.4795
17369SOL     OW53547   4.052   0.518   6.091  0.3487  0.5279  0.3523
17369SOL    HW153548   4.134   0.528   6.139  2.0987  1.2167 -2.5505
17369SOL    HW253549   4.055   0.428   6.058 -0.9623 -0.0247  1.6220
17370SOL     OW53550   5.487   3.097   3.893 -0.0875 -0.7259 -0.5146
17370SOL    HW153551   5.536   3.022   3.859  1.0718 -0.2589  0.0523
17370SOL    HW253552   5.446   3.064   3.973 -0.5076 -1.0506 -0.8570
17371SOL     OW53553   6.105   7.400  12.196  0.2545  0.4114 -0.0672
17371SOL    HW153554   6.066   7.386  12.282 -1.8354 -0.2706 -1.0339
17371SOL    HW253555   6.144   7.316  12.173  1.0722  0.6779  0.3088
17372SOL     OW53556   5.465   4.975   7.455  0.5000 -1.1256  0.4577
17372SOL    HW153557   5.386   4.978   7.510  0.3122  0.7454  0.1544
17372SOL    HW253558   5.435   5.003   7.369  1.0431 -2.8332 -0.3251
17373SOL     OW53559   6.539   4.944  11.508 -0.3696  0.7298  0.4953
17373SOL    HW153560   6.452   4.948  11.468 -0.6468  1.7571  1.1377
17373SOL    HW253561   6.579   4.865  11.472 -0.7441  1.3703 -1.4750
17374SOL     OW53562   0.290   4.552   0.304  0.1337 -0.2763  0.4886
17374SOL    HW153563   0.301   4.513   0.218 -1.5348  0.0078  0.1135
17374SOL    HW253564   0.340   4.496   0.363  2.1536  0.1032 -0.7835
17375SOL     OW53565   1.427   5.460   9.908  0.1125  0.2361  0.5275
17375SOL    HW153566   1.514   5.437   9.943  0.3294  0.4314  0.1222
17375SOL    HW253567   1.427   5.556   9.906  0.1571  0.2270 -0.1333
17376SOL     OW53568   0.415   6.749   5.471  0.3312 -0.2249  0.3774
17376SOL    HW153569   0.387   6.679   5.412 -1.4070  1.7346 -1.3134
17376SOL    HW253570   0.338   6.765   5.526  0.3558  0.9671  0.0792
17377SOL     OW53571   0.207   2.965   4.171  0.0934 -0.3240 -0.0273
17377SOL    HW153572   0.281   2.907   4.187  0.3357 -0.2389 -0.7831
17377SOL    HW253573   0.196   2.964   4.076 -0.3217  0.3451  0.0044
17378SOL     OW53574   1.352   0.652  11.382 -0.2727 -0.3859  0.4691
17378SOL    HW153575   1.358   0.659  11.478 -1.8135 -0.9438  0.6204
17378SOL    HW253576   1.300   0.574  11.366  0.1326 -0.4141 -0.8479
17379SOL     OW53577   7.135   7.434   4.756  0.2123 -0.1749  0.1645
17379SOL    HW153578   7.077   7.359   4.767 -0.7951  0.2899 -1.6059
17379SOL    HW253579   7.088   7.507   4.795 -0.0002  0.0307 -0.4677
17380SOL     OW53580   2.871   3.813   5.511 -0.0299 -0.0150  0.4042
17380SOL    HW153581   2.837   3.723   5.508 -1.6319  0.5536  0.5395
17380SOL    HW253582   2.889   3.835   5.419 -0.0612 -0.3137  0.3258
17381SOL     OW53583   2.450   0.406   8.314  0.0987  0.9570 -0.0398
17381SOL    HW153584   2.396   0.448   8.382  0.2750  0.9304  0.1159
17381SOL    HW253585   2.510   0.475   8.286 -0.1119  1.0306 -0.3178
17382SOL     OW53586   7.395   5.093  11.295  0.1815 -0.5637  0.3339
17382SOL    HW153587   7.358   5.119  11.210  1.4719  0.7028  0.1288
17382SOL    HW253588   7.384   4.998  11.297 -2.4781 -0.3313  0.0400
17383SOL     OW53589   0.744   1.697  10.685  0.4741  0.0333 -0.0461
17383SOL    HW153590   0.651   1.702  10.707  0.5923  1.1349  0.2838
17383SOL    HW253591   0.749   1.627  10.620 -0.3776 -0.9817  0.9425
17384SOL     OW53592   0.047   0.868   6.493 -0.2049  0.3359 -0.3988
17384SOL    HW153593   0.037   0.779   6.526 -0.9955  0.6653  0.2870
17384SOL    HW253594  -0.025   0.879   6.431 -0.5932  0.7586  0.1184
17385SOL     OW53595   3.664   4.837  11.689 -0.0108 -0.0460  0.2177
17385SOL    HW153596   3.641   4.908  11.749  0.9405  1.5431 -1.2116
17385SOL    HW253597   3.588   4.830  11.630 -0.2971 -0.5410  0.6420
17386SOL     OW53598   2.489   2.790   9.135 -0.4738  0.4945 -0.0645
17386SOL    HW153599   2.446   2.709   9.161 -2.0394  1.4540  0.4915
17386SOL    HW253600   2.547   2.812   9.207 -0.2495  0.0184 -0.0993
17387SOL     OW53601   3.641   5.007  12.441 -0.3568 -0.1167 -0.0052
17387SOL    HW153602   3.656   5.098  12.464 -1.7905 -0.2724  1.7261
17387SOL    HW253603   3.717   4.960  12.475 -0.6095  0.1848  1.0124
17388SOL     OW53604   2.686   0.447   4.808 -0.5143  0.0142  0.1779
17388SOL    HW153605   2.720   0.414   4.725 -0.7258 -1.5864  0.6941
17388SOL    HW253606   2.621   0.513   4.782  0.1292  0.2524 -0.8902
17389SOL     OW53607   6.123   5.611   5.610  0.1703  0.0059  0.1514
17389SOL    HW153608   6.042   5.644   5.573 -0.6754  0.0549  1.9439
17389SOL    HW253609   6.107   5.517   5.622  1.1058 -0.3635 -1.2404
17390SOL     OW53610   3.573   1.972   6.520 -0.0125 -0.4308  0.5040
17390SOL    HW153611   3.510   2.034   6.482  0.8061  0.0315 -0.1310
17390SOL    HW253612   3.588   1.907   6.450 -0.4126 -1.0127  0.9519
17391SOL     OW53613   2.018   2.379   2.795 -0.2053  0.8799  0.3442
17391SOL    HW153614   2.048   2.323   2.867  0.0725  0.2214 -0.2669
17391SOL    HW253615   1.939   2.421   2.829  0.2652  1.0614  1.2538
17392SOL     OW53616   2.672   7.150   9.960  0.0587 -0.3343 -0.4045
17392SOL    HW153617   2.663   7.167   9.866 -0.7443  1.1303 -0.0752
17392SOL    HW253618   2.754   7.193   9.984  0.8640 -1.6816 -0.6292
17393SOL     OW53619   1.047   3.144   5.948  0.3066 -0.1924  0.5260
17393SOL    HW153620   1.035   3.135   6.043  0.7678 -1.4624  0.4884
17393SOL    HW253621   1.093   3.064   5.923 -1.3231 -0.7053 -1.0309
17394SOL     OW53622   5.443   1.149   2.929 -0.1462  0.0023 -0.2517
17394SOL    HW153623   5.523   1.186   2.966 -0.2220 -0.2013  0.1259
17394SOL    HW253624   5.378   1.159   2.998 -0.3354 -0.2221 -0.3953
17395SOL     OW53625   5.254   6.717   4.858  0.2465  0.0836 -0.4210
17395SOL    HW153626   5.194   6.790   4.870  1.3450  0.8991  0.2833
17395SOL    HW253627   5.263   6.678   4.945 -0.6822 -1.2084 -0.8655
17396SOL     OW53628   5.748   0.532   6.612 -0.3467 -0.3948  0.3994
17396SOL    HW153629   5.720   0.617   6.646 -0.1535  0.2083 -0.9116
17396SOL    HW253630   5.771   0.482   6.690 -1.0698  0.5296  1.2351
17397SOL     OW53631   4.496   3.560   8.600  0.2200  0.2304 -0.2784
17397SOL    HW153632   4.524   3.474   8.569 -0.9706 -0.0849 -0.5124
17397SOL    HW253633   4.444   3.595   8.529 -0.6598  0.4492  0.4636
17398SOL     OW53634   5.579   3.736   9.435 -0.5736  0.1386 -0.2915
17398SOL    HW153635   5.573   3.714   9.342  1.2906  1.0139 -0.6675
17398SOL    HW253636   5.578   3.832   9.437 -0.7298  0.1321  0.6162
17399SOL     OW53637   4.037   0.618   3.826  0.1550  0.3216  0.1096
17399SOL    HW153638   4.076   0.690   3.777  3.5704 -1.9159 -0.8468
17399SOL    HW253639   4.007   0.556   3.759  1.4673 -1.1006  0.7636
17400SOL     OW53640   3.383   1.469   3.007 -0.1727  0.3583 -0.2814
17400SOL    HW153641   3.433   1.473   3.089  1.6680 -0.3049 -1.3254
17400SOL    HW253642   3.414   1.390   2.964 -1.4925  0.4232 -1.4025
17401SOL     OW53643   3.499   3.258   6.170 -0.3919 -0.4048  0.5812
17401SOL    HW153644   3.484   3.184   6.228 -0.9660 -0.0606  0.8699
17401SOL    HW253645   3.571   3.306   6.210  0.4174 -1.1413  0.0609
17402SOL     OW53646   3.735   4.615  12.341  0.7296  0.0847 -0.3251
17402SOL    HW153647   3.687   4.560  12.402  0.1440  1.4809  0.5303
17402SOL    HW253648   3.670   4.676  12.307  1.4859  0.7475 -0.6415
17403SOL     OW53649   7.428   3.208   3.731  0.1011  0.3908 -0.7687
17403SOL    HW153650   7.477   3.147   3.676  1.2200 -2.7308  3.1810
17403SOL    HW253651   7.344   3.165   3.747  0.9870 -0.4515  2.2752
17404SOL     OW53652   3.287   3.448   1.532 -0.9549 -0.4507  0.1276
17404SOL    HW153653   3.255   3.530   1.492  0.2760  0.2735  0.5668
17404SOL    HW253654   3.222   3.428   1.599 -0.3658  1.1916  1.2642
17405SOL     OW53655   0.875   1.115   5.219  0.1851 -0.2460 -0.0032
17405SOL    HW153656   0.910   1.050   5.158 -1.4060 -2.1494  1.0104
17405SOL    HW253657   0.780   1.107   5.210 -0.0516  0.9068  1.2378
17406SOL     OW53658   1.323   0.339   1.773  0.5313  0.1550 -0.2398
17406SOL    HW153659   1.355   0.344   1.863 -0.5021 -0.7026  0.1926
17406SOL    HW253660   1.294   0.249   1.762  1.2539  0.0677 -1.6615
17407SOL     OW53661   5.775   2.597   0.234  0.3104 -0.1635  0.1220
17407SOL    HW153662   5.762   2.620   0.142  0.2717  0.2652  0.2314
17407SOL    HW253663   5.809   2.677   0.274  2.5253 -0.9792  0.0243
17408SOL     OW53664   7.603   0.436   3.151  0.2570 -0.4161 -0.0718
17408SOL    HW153665   7.521   0.434   3.200  1.6855 -1.9159  2.4147
17408SOL    HW253666   7.671   0.423   3.216  2.6198  1.8057 -1.8989
17409SOL     OW53667   4.961   2.507   7.888 -0.5090  0.1480  0.1954
17409SOL    HW153668   4.900   2.449   7.934 -1.4424  0.7416 -0.2704
17409SOL    HW253669   5.030   2.448   7.856 -1.6909 -0.7991 -0.7065
17410SOL     OW53670   2.922   3.528   9.469  0.5533  0.1430  0.9090
17410SOL    HW153671   2.928   3.438   9.500 -1.2323 -0.0285  0.8638
17410SOL    HW253672   2.913   3.580   9.549  2.1705  0.3773  0.9713
17411SOL     OW53673   2.141   7.236   3.906 -0.4322 -0.0519  0.4697
17411SOL    HW153674   2.129   7.150   3.946 -0.8794 -0.0265  0.3923
17411SOL    HW253675   2.097   7.296   3.966 -1.1048 -0.0136 -0.0511
17412SOL     OW53676   2.548   0.713   5.599  0.3229 -0.0762 -0.8146
17412SOL    HW153677   2.523   0.623   5.581 -0.3875 -0.2351  0.7723
17412SOL    HW253678   2.606   0.707   5.675  0.5382  0.7751 -0.8998
17413SOL     OW53679   5.190   4.226   0.441  0.3195  0.0644  0.1167
17413SOL    HW153680   5.136   4.168   0.495 -0.3735 -0.8511 -1.5038
17413SOL    HW253681   5.126   4.286   0.401  0.6499 -0.2189 -0.8385
17414SOL     OW53682   6.906   7.647   8.888 -0.2494 -0.2210 -0.1522
17414SOL    HW153683   6.979   7.593   8.921 -1.2941 -0.9219  1.1310
17414SOL    HW253684   6.874   7.599   8.812 -0.6781 -1.0466  0.5233
17415SOL     OW53685   0.262   1.755   0.290 -0.4686  0.2186  0.5743
17415SOL    HW153686   0.256   1.746   0.385 -2.1791 -1.0437  0.3991
17415SOL    HW253687   0.302   1.673   0.261  1.2803  1.1293  0.2554
17416SOL     OW53688   6.094   7.831   4.805  0.3952  0.2190  0.4725
17416SOL    HW153689   6.127   7.744   4.829  0.2502  0.2969  0.9800
17416SOL    HW253690   6.155   7.863   4.739  0.4720 -0.2530  0.3135
17417SOL     OW53691   5.504   5.831   6.364 -0.5886 -0.4839  0.0609
17417SOL    HW153692   5.514   5.750   6.415 -1.2243 -1.1192 -0.7837
17417SOL    HW253693   5.435   5.880   6.409  0.2329 -0.1025  0.9386
17418SOL     OW53694   4.126   3.771   0.006 -0.1444 -0.0465  0.7835
17418SOL    HW153695   4.103   3.829   0.079 -0.9280  0.4641  0.1580
17418SOL    HW253696   4.050   3.713  -0.003  0.5957 -1.1258  1.3457
17419SOL     OW53697   1.383   7.154   6.341  0.4873 -0.4342 -0.2756
17419SOL    HW153698   1.446   7.214   6.380 -0.3357 -1.0396  2.1326
17419SOL    HW253699   1.373   7.186   6.251  3.2353  0.4196 -0.3846
17420SOL     OW53700   4.388   0.427   9.661 -0.1919  0.2840  0.3219
17420SOL    HW153701   4.411   0.520   9.659 -1.5913  0.6428  0.2064
17420SOL    HW253702   4.343   0.412   9.578  0.4242 -0.6259  0.1305
17421SOL     OW53703   0.379   4.304   2.113  0.0522 -0.5713 -0.5929
17421SOL    HW153704   0.406   4.370   2.049 -1.2083 -0.1425 -0.7110
17421SOL    HW253705   0.290   4.280   2.086  0.0882 -1.5160  0.0968
17422SOL     OW53706   4.737   1.285   7.725  0.2231  1.0534  0.1876
17422SOL    HW153707   4.791   1.222   7.774  0.7732  0.8798 -0.6181
17422SOL    HW253708   4.679   1.231   7.672  0.9316  1.1991 -0.7653
17423SOL     OW53709   3.609   6.637   3.544  0.0575  0.1146  0.5500
17423SOL    HW153710   3.531   6.692   3.539  0.7779  1.1172 -0.0822
17423SOL    HW253711   3.654   6.667   3.623  0.2816  0.2290  0.3834
17424SOL     OW53712   0.481   2.777  11.496 -0.0366  0.0708  0.2377
17424SOL    HW153713   0.576   2.762  11.490  0.0617  0.0937  1.5016
17424SOL    HW253714   0.474   2.869  11.520 -0.3043 -0.3657  1.9218
17425SOL     OW53715   5.786   3.224   5.989 -0.0058 -0.1823  0.3508
17425SOL    HW153716   5.753   3.250   5.904  2.5910 -0.2934 -0.7823
17425SOL    HW253717   5.827   3.303   6.025  1.6455 -0.8484  0.0441
17426SOL     OW53718   0.741   1.804   8.385  0.1545 -0.3531 -0.0111
17426SOL    HW153719   0.693   1.734   8.341  2.8017 -3.0784  1.1202
17426SOL    HW253720   0.796   1.843   8.316  0.8404 -1.4460 -0.1050
17427SOL     OW53721   7.343   2.366   7.825 -0.2011  0.2095  0.0869
17427SOL    HW153722   7.312   2.454   7.804 -1.0266  0.0185  0.4811
17427SOL    HW253723   7.370   2.371   7.917  0.3104  0.1940 -0.0555
17428SOL     OW53724   6.626   7.697   0.613  0.1220  0.2662 -0.2746
17428SOL    HW153725   6.635   7.728   0.703  1.1214 -1.2703  0.1906
17428SOL    HW253726   6.574   7.617   0.620  0.6893 -0.1803 -0.9858
17429SOL     OW53727   4.749   0.831   6.845 -0.1684 -0.0476  0.0943
17429SOL    HW153728   4.709   0.842   6.758  0.0342  1.4267  0.1693
17429SOL    HW253729   4.686   0.779   6.894 -0.5379 -0.4362 -0.7676
17430SOL     OW53730   0.207   0.733   4.912  0.1299  0.9855 -0.6682
17430SOL    HW153731   0.254   0.688   4.843 -1.1599  1.8640 -2.1973
17430SOL    HW253732   0.263   0.725   4.989  0.6529 -1.8366 -1.2363
17431SOL     OW53733   7.706   3.223   7.376  0.0222  0.1764 -0.4953
17431SOL    HW153734   7.615   3.250   7.362  0.4031  1.5558 -0.4124
17431SOL    HW253735   7.702   3.164   7.451 -0.8440 -0.0226 -0.6860
17432SOL     OW53736   5.480   6.061   7.949  0.0910  0.8682  0.6370
17432SOL    HW153737   5.386   6.043   7.957  0.1349 -0.2024 -0.8212
17432SOL    HW253738   5.490   6.097   7.861  1.2679 -0.7630  0.0611
17433SOL     OW53739   5.425   6.465   9.418  0.1080  0.5909  0.4321
17433SOL    HW153740   5.392   6.381   9.385 -0.5361  0.7357  0.7065
17433SOL    HW253741   5.521   6.456   9.413  0.0546 -0.2636  0.7152
17434SOL     OW53742   2.737   3.700   3.820  0.3499  0.3240  0.1164
17434SOL    HW153743   2.730   3.772   3.757 -0.6539  0.6125  0.5326
17434SOL    HW253744   2.822   3.714   3.862  0.6789  0.5830 -0.6221
17435SOL     OW53745   7.399   2.209   1.747  0.3083  0.2928  0.6715
17435SOL    HW153746   7.308   2.234   1.763 -0.4475 -1.5134 -0.3929
17435SOL    HW253747   7.450   2.288   1.763 -1.4682  1.3858  1.1344
17436SOL     OW53748   5.435   3.062   6.177 -0.3254  0.2123  0.3989
17436SOL    HW153749   5.469   3.016   6.100  0.3315  1.6480 -0.2096
17436SOL    HW253750   5.509   3.066   6.237 -0.4944  0.1207  0.6136
17437SOL     OW53751   4.501   6.478   2.976 -0.3144  0.3799  0.2347
17437SOL    HW153752   4.518   6.516   2.890 -0.2286  1.5498  0.7554
17437SOL    HW253753   4.430   6.416   2.962  0.2922 -0.0923 -0.8359
17438SOL     OW53754   1.683   3.001   0.339  0.0126 -0.2477  0.4402
17438SOL    HW153755   1.682   2.939   0.266 -0.5049 -1.6945  1.6050
17438SOL    HW253756   1.766   2.985   0.383  0.6305  1.0985 -0.1869
17439SOL     OW53757   2.817   0.154   0.751 -0.9231  0.7848  0.6749
17439SOL    HW153758   2.800   0.118   0.664  0.0809  0.0523  0.7720
17439SOL    HW253759   2.764   0.234   0.753  2.2458  3.2607 -2.2559
17440SOL     OW53760   1.008   3.491   3.453 -0.1760 -0.1033  0.0289
17440SOL    HW153761   0.954   3.553   3.503  2.1953  2.5446 -0.4646
17440SOL    HW253762   1.039   3.429   3.518 -1.2705  0.1987  0.8704
17441SOL     OW53763   0.299   3.353   3.308 -0.5646  0.1133 -0.1670
17441SOL    HW153764   0.352   3.279   3.280 -2.7089 -0.9335 -1.6924
17441SOL    HW253765   0.287   3.340   3.402 -0.5858 -1.2642 -0.3482
17442SOL     OW53766   6.321   4.788  10.751 -0.7784 -0.1628 -0.3495
17442SOL    HW153767   6.317   4.703  10.794 -0.1754 -0.5027 -0.9417
17442SOL    HW253768   6.269   4.845  10.806 -0.2502 -0.6502  0.6875
17443SOL     OW53769   2.732   1.913   2.065 -0.0995 -0.4824 -0.7506
17443SOL    HW153770   2.814   1.865   2.074  1.0081  1.6652  2.3698
17443SOL    HW253771   2.753   2.002   2.093 -2.4663  1.4617 -4.3294
17444SOL     OW53772   7.095   2.495   4.456 -0.2134  0.0966  0.2475
17444SOL    HW153773   7.031   2.425   4.471 -1.4019  1.3474  1.3313
17444SOL    HW253774   7.142   2.502   4.539 -1.2692  1.6800  0.7441
17445SOL     OW53775   3.215   5.317   4.482  0.1672 -0.2172  0.7589
17445SOL    HW153776   3.123   5.344   4.488  0.2254 -0.0059  0.7136
17445SOL    HW253777   3.254   5.343   4.565  0.3130  0.1870  0.5681
17446SOL     OW53778   2.998   4.092   4.346  0.3278 -0.1087 -0.2613
17446SOL    HW153779   3.002   4.104   4.441 -0.8914 -0.9591 -0.0839
17446SOL    HW253780   3.087   4.067   4.321  1.0016  1.4519  0.4485
17447SOL     OW53781   6.456   2.388   9.181 -0.0762 -0.1653  0.0806
17447SOL    HW153782   6.536   2.393   9.129  0.6896 -0.1869  1.2084
17447SOL    HW253783   6.388   2.363   9.119  1.3126 -3.1541 -0.4491
17448SOL     OW53784   5.547   4.954   9.855  0.1055  0.7072 -0.2211
17448SOL    HW153785   5.577   5.011   9.784 -0.5572 -0.0806 -1.1523
17448SOL    HW253786   5.521   4.872   9.812 -0.7843  0.3876  0.8556
17449SOL     OW53787   6.463   3.387   5.182 -0.6010 -0.1666 -0.1695
17449SOL    HW153788   6.489   3.319   5.244  0.9248  0.9804  0.5333
17449SOL    HW253789   6.483   3.469   5.227 -0.0336  0.7157 -1.9287
17450SOL     OW53790   7.867   4.486   8.817  0.5361 -0.2237  0.6273
17450SOL    HW153791   7.851   4.559   8.876  0.9984 -0.7780  1.4593
17450SOL    HW253792   7.861   4.524   8.729  0.3131  0.7075  1.0342
17451SOL     OW53793   5.122   5.083   4.322 -0.0960 -0.3172 -0.3266
17451SOL    HW153794   5.033   5.058   4.348 -0.5571  0.5038 -1.0361
17451SOL    HW253795   5.173   5.079   4.403 -0.4465 -2.1405 -0.1591
17452SOL     OW53796   1.070   1.479   4.901  0.3066  0.4297 -0.1291
17452SOL    HW153797   1.003   1.448   4.840 -0.2014  0.1322  0.5627
17452SOL    HW253798   1.037   1.454   4.987  0.5925  1.5932  0.3411
17453SOL     OW53799   5.518   2.480   0.229 -0.1082 -0.4092 -0.1902
17453SOL    HW153800   5.605   2.516   0.247 -0.2597 -0.5392  0.8428
17453SOL    HW253801   5.506   2.412   0.295 -1.2436  0.0239  0.0773
17454SOL     OW53802   6.898   2.758   5.787  0.9029  0.3474  0.1789
17454SOL    HW153803   6.877   2.835   5.841  1.7801  0.3495  0.5344
17454SOL    HW253804   6.939   2.795   5.708  2.0622  0.2143  0.7063
17455SOL     OW53805   6.535   5.738   4.301  0.3323  0.0345 -0.5698
17455SOL    HW153806   6.529   5.768   4.210 -1.7247 -0.2257 -0.5691
17455SOL    HW253807   6.506   5.647   4.298 -1.5509  0.5509  0.5704
17456SOL     OW53808   5.953   5.990   3.537 -0.6366  0.4257 -0.1773
17456SOL    HW153809   5.938   5.897   3.556 -0.8788  0.4136 -0.4120
17456SOL    HW253810   6.038   5.991   3.492 -0.2159  0.4222  0.6101
17457SOL     OW53811   7.023   3.343  12.021 -0.1037  0.2526 -0.1682
17457SOL    HW153812   7.050   3.366  11.932 -0.2623  2.0715  0.2067
17457SOL    HW253813   7.101   3.301  12.059  0.4290  0.6742 -0.7629
17458SOL     OW53814   0.692   5.936   9.808 -0.3559 -0.0978  0.4327
17458SOL    HW153815   0.673   6.023   9.843  0.0567 -0.2752  1.1244
17458SOL    HW253816   0.787   5.934   9.798 -0.4618 -0.0809 -0.6493
17459SOL     OW53817   5.215   4.953   3.693  0.0727  0.0806  0.2173
17459SOL    HW153818   5.187   4.963   3.602  0.8928  3.3142  0.1958
17459SOL    HW253819   5.221   4.859   3.706 -0.1955 -0.5066 -3.0288
17460SOL     OW53820   6.756   3.233   3.745  0.2062 -0.0771 -0.0878
17460SOL    HW153821   6.751   3.316   3.792 -0.7688  1.0043 -1.9565
17460SOL    HW253822   6.830   3.244   3.685 -1.7974  0.8078 -2.6030
17461SOL     OW53823   2.135   4.785   2.531  0.4053  0.2128  0.4440
17461SOL    HW153824   2.140   4.703   2.581 -2.4545  1.0604  2.3836
17461SOL    HW253825   2.090   4.762   2.450  1.2499 -0.4120  0.1355
17462SOL     OW53826   6.660   6.131   9.822  0.1532 -0.0145 -0.0630
17462SOL    HW153827   6.624   6.089   9.744  0.2191  1.8106 -1.1326
17462SOL    HW253828   6.722   6.067   9.857  1.0362 -0.4161 -2.2035
17463SOL     OW53829   5.623   6.111   1.545 -0.0997  0.3124  0.0719
17463SOL    HW153830   5.702   6.072   1.580  0.4412 -0.3372 -1.7472
17463SOL    HW253831   5.604   6.185   1.603  0.8510 -0.5439  1.5122
17464SOL     OW53832   0.406   2.262   4.919 -0.1561 -0.4052  0.3139
17464SOL    HW153833   0.322   2.299   4.892  0.3472  0.9746  0.5508
17464SOL    HW253834   0.468   2.291   4.852  0.8630  2.0089  2.1381
17465SOL     OW53835   2.347   0.427   8.668 -0.0957 -0.3343 -0.0065
17465SOL    HW153836   2.354   0.334   8.648 -0.9319  0.1072 -2.6711
17465SOL    HW253837   2.438   0.459   8.668  0.1595 -1.0332  0.5008
17466SOL     OW53838   6.189   0.237   3.883  0.2176  0.2016  0.2420
17466SOL    HW153839   6.211   0.144   3.875 -0.0025  0.1452  0.3078
17466SOL    HW253840   6.241   0.279   3.814 -0.7337 -0.1379 -0.7130
17467SOL     OW53841   6.614   5.060  10.758 -0.2263  0.0258 -0.1849
17467SOL    HW153842   6.571   5.134  10.801 -2.8359 -0.6657 -1.4053
17467SOL    HW253843   6.631   5.091  10.669 -0.3098 -0.4428 -0.3686
17468SOL     OW53844   3.544   0.322   7.470  0.1064 -0.3467  0.1668
17468SOL    HW153845   3.504   0.274   7.542  0.3999 -0.7531  0.0597
17468SOL    HW253846   3.572   0.254   7.409  0.6200 -0.0416  0.0634
17469SOL     OW53847   0.486   4.361   3.243  0.5565  0.3424  0.2533
17469SOL    HW153848   0.408   4.360   3.189  0.4413  0.6297  0.4124
17469SOL    HW253849   0.464   4.307   3.319  1.3801 -1.7165 -0.8829
17470SOL     OW53850   5.638   3.599   4.857 -0.1830 -0.2930  0.0619
17470SOL    HW153851   5.591   3.649   4.924 -0.0935  0.1245 -0.1823
17470SOL    HW253852   5.676   3.526   4.905 -1.0034 -0.5908  0.2787
17471SOL     OW53853   6.555   1.011   5.388  0.4920  0.1385  0.3323
17471SOL    HW153854   6.618   0.941   5.371 -1.1848 -1.6929  1.1371
17471SOL    HW253855   6.520   1.034   5.302  1.8691  0.8384 -0.0622
17472SOL     OW53856   0.056   1.545   8.032  0.1256  0.2871  0.2624
17472SOL    HW153857  -0.023   1.599   8.026  0.5408  0.7174 -1.7629
17472SOL    HW253858   0.061   1.521   8.125 -0.8177  2.6041  0.9818
17473SOL     OW53859   2.636   5.373   2.340 -0.2747  0.3168 -0.2375
17473SOL    HW153860   2.541   5.377   2.338 -0.6423 -2.2160  3.1825
17473SOL    HW253861   2.664   5.459   2.372 -1.3517  1.0465 -1.1917
17474SOL     OW53862   3.598   2.468  11.374 -0.0020  0.3183 -0.1579
17474SOL    HW153863   3.511   2.490  11.407 -0.0469  1.3863 -0.9262
17474SOL    HW253864   3.641   2.553  11.363  0.5932 -0.1060 -1.2345
17475SOL     OW53865   2.481   1.069   6.498  0.4249 -0.4074 -0.4858
17475SOL    HW153866   2.511   1.160   6.503  0.7948 -0.4911 -1.0596
17475SOL    HW253867   2.494   1.035   6.586  0.4425  0.0469 -0.3078
17476SOL     OW53868   5.981   5.165  10.786  0.1120  0.0106 -0.2504
17476SOL    HW153869   5.916   5.106  10.825  0.2874  0.5099  0.8317
17476SOL    HW253870   5.986   5.239  10.846  2.2852 -0.3813  0.1626
17477SOL     OW53871   1.537   4.673   1.713 -0.2155  0.2212 -0.1507
17477SOL    HW153872   1.632   4.676   1.713  0.2450 -4.8313 -1.0733
17477SOL    HW253873   1.512   4.692   1.622 -0.1917  1.8826  0.1653
17478SOL     OW53874   5.816   3.159  11.218  0.6918  0.7027  0.7348
17478SOL    HW153875   5.747   3.214  11.182  1.9753  2.1911  0.4444
17478SOL    HW253876   5.890   3.170  11.157  1.6914  0.3765  1.8499
17479SOL     OW53877   7.929   0.265   0.563  0.1954  0.3004 -0.1030
17479SOL    HW153878   7.982   0.220   0.628 -0.6163 -0.4714  0.0493
17479SOL    HW253879   7.874   0.324   0.614 -0.6321 -0.4991 -0.0357
17480SOL     OW53880   0.229   2.742   1.534  0.1322 -0.2273  0.5182
17480SOL    HW153881   0.219   2.757   1.440 -0.0428 -0.2949  0.5254
17480SOL    HW253882   0.232   2.829   1.572 -0.0460 -0.2007  0.4743
17481SOL     OW53883   7.633   0.611   0.796 -0.2563  0.2087  0.4949
17481SOL    HW153884   7.580   0.610   0.716 -1.3893 -2.8624  1.1826
17481SOL    HW253885   7.636   0.704   0.820 -3.0811  0.8363 -1.0300
17482SOL     OW53886   5.081   0.459   2.106 -0.3198  0.2112 -0.3831
17482SOL    HW153887   5.044   0.528   2.162 -0.2635  1.4951 -1.8718
17482SOL    HW253888   5.007   0.428   2.054  0.1711  1.0994 -1.6587
17483SOL     OW53889   6.548   1.193   3.392 -0.0726  0.2095 -0.4292
17483SOL    HW153890   6.540   1.101   3.418 -1.0910 -0.2131 -2.0556
17483SOL    HW253891   6.626   1.224   3.439  1.0755 -1.8466 -0.8080
17484SOL     OW53892   0.339   0.873   0.107 -0.2232 -0.1516  0.0401
17484SOL    HW153893   0.433   0.878   0.125 -0.5635  0.4002  1.8893
17484SOL    HW253894   0.298   0.894   0.190 -2.0153  0.9837 -1.0633
17485SOL     OW53895   1.816   2.880   7.600  0.3326  0.9823 -0.1861
17485SOL    HW153896   1.790   2.795   7.565  2.3402  0.6489 -1.0182
17485SOL    HW253897   1.800   2.873   7.694  0.1923 -0.2254 -0.2830
17486SOL     OW53898   4.712   4.748  10.973 -0.3818 -0.2734  0.4441
17486SOL    HW153899   4.780   4.800  11.018 -1.2502  1.7630 -0.4403
17486SOL    HW253900   4.761   4.689  10.916  0.6875  0.4787  0.5399
17487SOL     OW53901   2.321   3.142   0.404 -0.0143  0.2666  0.0223
17487SOL    HW153902   2.346   3.152   0.496  1.5333  1.2516 -0.4671
17487SOL    HW253903   2.356   3.220   0.361 -2.9720  1.1353 -0.9931
17488SOL     OW53904   5.915   4.164   0.487  0.2849 -0.2199 -0.6035
17488SOL    HW153905   5.902   4.247   0.442  0.6040  0.0358 -0.2303
17488SOL    HW253906   5.827   4.131   0.503  0.0462  1.3002  1.5527
17489SOL     OW53907   3.579   3.723   9.851 -0.3095 -0.0199  0.0330
17489SOL    HW153908   3.595   3.758   9.939 -0.8861  0.1394  0.0778
17489SOL    HW253909   3.545   3.635   9.865 -0.2733 -0.0444 -0.0323
17490SOL     OW53910   7.896   1.375   0.413  0.0615 -0.0310 -0.0371
17490SOL    HW153911   7.918   1.455   0.365 -0.7724 -0.1640 -0.6658
17490SOL    HW253912   7.980   1.329   0.421  0.2324  0.0146 -1.3478
17491SOL     OW53913   1.267   3.811   3.081  0.0542 -0.1982  0.2166
17491SOL    HW153914   1.232   3.893   3.046 -1.1270 -0.4947  0.6746
17491SOL    HW253915   1.215   3.795   3.160 -0.9684 -2.3395 -0.8379
17492SOL     OW53916   1.809   4.088  11.104  0.1760  0.1098 -0.1459
17492SOL    HW153917   1.759   4.040  11.169  1.1554  0.4378  0.8831
17492SOL    HW253918   1.900   4.071  11.126  0.5716  2.4655  0.3417
17493SOL     OW53919   5.523   2.513   6.426 -0.4888  0.6247  0.6195
17493SOL    HW153920   5.441   2.515   6.475  0.2564  1.4966  1.8849
17493SOL    HW253921   5.544   2.605   6.412 -0.2413  0.3982 -0.6246
17494SOL     OW53922   5.968   3.605   4.038 -0.1687 -0.2387  0.0464
17494SOL    HW153923   6.048   3.559   4.014  0.5367  0.5689  0.7830
17494SOL    HW253924   5.923   3.619   3.954  0.9551  0.1858 -0.5092
17495SOL     OW53925   6.043   2.071   2.606  0.0299  0.2491 -0.0924
17495SOL    HW153926   6.035   2.053   2.513 -0.7123 -1.0009  0.1919
17495SOL    HW253927   6.005   1.994   2.649 -0.9964  1.4348  1.2285
17496SOL     OW53928   6.339   0.579   7.133  0.3574  0.3597 -0.4028
17496SOL    HW153929   6.278   0.649   7.112 -1.2093 -0.6677  0.5146
17496SOL    HW253930   6.327   0.515   7.063 -3.1901 -2.0033  2.0393
17497SOL     OW53931   1.778   6.112   9.954 -0.3111  0.3659 -0.5442
17497SOL    HW153932   1.693   6.112   9.998 -0.0218 -0.4605  0.0428
17497SOL    HW253933   1.784   6.198   9.912 -1.5781  0.2909 -0.8892
17498SOL     OW53934   2.932   6.324   6.920  0.2297 -0.2643  0.0759
17498SOL    HW153935   2.853   6.279   6.890 -0.4238  1.0480 -0.2364
17498SOL    HW253936   3.003   6.263   6.901 -0.5220 -0.7502 -1.2879
17499SOL     OW53937   4.608   5.249   9.383 -0.2830 -0.4569  0.0613
17499SOL    HW153938   4.650   5.167   9.409  1.6666  0.2238 -0.7195
17499SOL    HW253939   4.514   5.231   9.388  0.0288 -3.3571 -2.0009
17500SOL     OW53940   4.409   1.400  10.302  0.4657  0.1807  0.1411
17500SOL    HW153941   4.387   1.396  10.209  0.8638  1.2802 -0.0130
17500SOL    HW253942   4.371   1.482  10.332 -0.3902 -0.5528  1.1648
17501SOL     OW53943   7.606   4.567  10.762  0.1669 -0.3715 -0.1232
17501SOL    HW153944   7.564   4.601  10.684  0.0023 -0.7718 -0.2142
17501SOL    HW253945   7.690   4.613  10.767  0.1506 -0.3005 -0.5023
17502SOL     OW53946   6.620   7.080   0.831 -0.3472  0.0069  0.2307
17502SOL    HW153947   6.702   7.066   0.879  0.3521  0.1905 -0.8762
17502SOL    HW253948   6.554   7.089   0.900  0.2839 -1.7090  1.1352
17503SOL     OW53949   5.397   6.389   1.635 -0.0955 -0.0789  0.1993
17503SOL    HW153950   5.425   6.322   1.697 -1.2467 -0.6525  0.1293
17503SOL    HW253951   5.321   6.350   1.591 -0.2074  0.9104 -0.5052
17504SOL     OW53952   6.494   7.032  11.018 -0.3941 -0.1827 -0.0538
17504SOL    HW153953   6.464   6.967  11.081 -0.0072  0.0051  0.3289
17504SOL    HW253954   6.533   6.981  10.947  0.5779 -0.3598  0.5855
17505SOL     OW53955   5.883   0.380   8.291  0.3635  0.1299 -0.0117
17505SOL    HW153956   5.931   0.463   8.285  0.7164 -0.1221 -0.9565
17505SOL    HW253957   5.924   0.333   8.363  0.2506  0.7242  0.4423
17506SOL     OW53958   6.690   0.496   8.891 -0.1456 -0.0233  0.0707
17506SOL    HW153959   6.621   0.558   8.866 -0.5174 -0.4210  0.1103
17506SOL    HW253960   6.694   0.434   8.818 -0.3878 -0.4715  0.4371
17507SOL     OW53961   0.782   3.002   3.093 -0.3651  0.4414 -0.1169
17507SOL    HW153962   0.757   3.076   3.038  0.7099  1.5109  0.7772
17507SOL    HW253963   0.866   3.028   3.132 -0.1950 -1.0518  0.5904
17508SOL     OW53964   6.029   5.232   9.575  0.3440 -0.1224 -0.2871
17508SOL    HW153965   5.998   5.253   9.487  0.7915 -2.8534 -1.1820
17508SOL    HW253966   6.120   5.206   9.562  0.2658 -1.0429  0.8858
17509SOL     OW53967   6.456   4.246  11.246 -0.7201 -0.5336  0.3113
17509SOL    HW153968   6.521   4.299  11.199 -1.4183  0.2237  0.1814
17509SOL    HW253969   6.397   4.214  11.177 -0.8178 -0.7530  0.4945
17510SOL     OW53970   5.281   2.376   5.493  0.0102  0.3329  0.0049
17510SOL    HW153971   5.213   2.430   5.533 -0.4619 -1.4853  1.8628
17510SOL    HW253972   5.233   2.299   5.461  0.7253  0.6927 -2.1005
17511SOL     OW53973   5.374   6.667   0.353  0.2048 -0.1065  0.5407
17511SOL    HW153974   5.363   6.578   0.386 -0.3043 -0.4648 -0.5441
17511SOL    HW253975   5.336   6.723   0.421  0.4315 -0.7127  1.1816
17512SOL     OW53976   5.252   0.698   4.750  0.1224 -0.1163  0.5397
17512SOL    HW153977   5.268   0.792   4.749  0.2918 -0.1400 -0.9476
17512SOL    HW253978   5.169   0.687   4.705  1.3197 -0.8386 -1.6255
17513SOL     OW53979   1.376   1.027   7.557 -0.3767  0.4912  0.4212
17513SOL    HW153980   1.421   1.081   7.492 -0.2852  1.3378  1.1685
17513SOL    HW253981   1.417   0.941   7.550 -2.3241 -0.3609 -2.6760
17514SOL     OW53982   3.370   2.335   0.744  0.2565  0.7152 -0.6908
17514SOL    HW153983   3.456   2.293   0.743  0.2926  0.7244 -2.7068
17514SOL    HW253984   3.374   2.398   0.672 -0.8934  1.9091  0.2368
17515SOL     OW53985   7.431   2.107   9.350 -0.6043 -0.5901 -0.1001
17515SOL    HW153986   7.359   2.126   9.291 -1.4294  0.5403  1.2141
17515SOL    HW253987   7.506   2.089   9.293 -1.4626  0.0807 -1.4584
17516SOL     OW53988   6.748   2.132   9.132  0.5850 -0.2722 -0.9007
17516SOL    HW153989   6.680   2.086   9.081 -0.4883 -0.3326  0.5273
17516SOL    HW253990   6.809   2.063   9.158  0.6753 -0.3716 -1.3523
17517SOL     OW53991   7.450   0.197   0.047  0.3958 -0.7100 -0.0325
17517SOL    HW153992   7.542   0.191   0.071  0.1934 -3.1079  0.3323
17517SOL    HW253993   7.432   0.117  -0.002 -1.9719 -1.2887  1.6126
17518SOL     OW53994   6.509   6.232   6.858  0.1450  0.5593  0.3641
17518SOL    HW153995   6.501   6.149   6.811  0.5474  0.3399  0.6726
17518SOL    HW253996   6.463   6.217   6.941  2.7874 -0.4323  1.7840
17519SOL     OW53997   7.432   4.109  10.305  0.0125 -0.1395 -0.1973
17519SOL    HW153998   7.449   4.068  10.390  1.6061 -1.4990 -1.1060
17519SOL    HW253999   7.372   4.049  10.261  0.5233 -0.3299 -0.6488
17520SOL     OW54000   4.454   2.940   2.180  0.3761  0.2763 -0.0800
17520SOL    HW154001   4.442   3.023   2.225  0.5611  0.0483  0.3990
17520SOL    HW254002   4.541   2.910   2.208  0.3144 -0.0704 -0.2577
17521SOL     OW54003   0.963   6.497  12.043 -0.2538  0.1106 -0.1111
17521SOL    HW154004   0.871   6.474  12.042 -0.2146 -0.0743  0.3082
17521SOL    HW254005   0.996   6.461  12.125  0.2375 -0.0035 -0.3558
17522SOL     OW54006   4.814   2.424  11.942 -0.0686 -0.1346  0.1005
17522SOL    HW154007   4.838   2.365  12.013 -1.0788 -1.1951 -0.3982
17522SOL    HW254008   4.822   2.512  11.979 -0.3389 -0.6542  1.4457
17523SOL     OW54009   3.576   0.126   1.093  0.7628 -0.3594  0.1838
17523SOL    HW154010   3.579   0.210   1.047 -0.0430  0.5474  1.7001
17523SOL    HW254011   3.650   0.077   1.058  1.8454  1.3484 -0.0634
17524SOL     OW54012   7.702   2.526   9.401  0.3041  0.7820 -0.1491
17524SOL    HW154013   7.762   2.564   9.466  1.8843 -0.3209 -0.8989
17524SOL    HW254014   7.656   2.457   9.449 -0.2884  1.5237  0.3871
17525SOL     OW54015   2.515   3.516   7.556  0.4198 -0.0501 -0.1463
17525SOL    HW154016   2.536   3.607   7.577  1.1667 -0.0120 -0.9704
17525SOL    HW254017   2.552   3.466   7.629 -0.2913  0.3201  0.4814
17526SOL     OW54018   0.681   5.012   6.831  0.3606 -0.2311 -0.2168
17526SOL    HW154019   0.591   4.980   6.828  0.2202  0.0879  0.4293
17526SOL    HW254020   0.710   4.994   6.920  0.1546  1.7144  0.2875
17527SOL     OW54021   5.564   1.401   9.082  0.3961  0.3195 -0.6682
17527SOL    HW154022   5.564   1.475   9.021 -0.1584  1.1165  0.2690
17527SOL    HW254023   5.476   1.365   9.077  0.0283  1.0289  0.3942
17528SOL     OW54024   1.050   3.165   6.578  0.2301 -0.2869 -0.4625
17528SOL    HW154025   0.964   3.140   6.611  0.3980 -0.7386 -0.3517
17528SOL    HW254026   1.091   3.213   6.650  0.0628 -0.0450 -0.5265
17529SOL     OW54027   5.057   3.468   2.783  0.2436  0.2998  0.2338
17529SOL    HW154028   4.964   3.445   2.793  0.4499 -0.4084  0.6547
17529SOL    HW254029   5.071   3.539   2.846  0.2583 -0.4459  1.1103
17530SOL     OW54030   5.059   6.119  11.996  0.1715 -0.1784  0.1401
17530SOL    HW154031   5.082   6.074  12.077  0.5131 -1.3223 -0.5741
17530SOL    HW254032   4.995   6.062  11.954 -0.9307  0.9860  0.1516
17531SOL     OW54033   6.963   6.914   7.953 -0.2430  0.4151 -0.2107
17531SOL    HW154034   6.955   6.820   7.971 -1.9472  0.3653 -1.1027
17531SOL    HW254035   7.044   6.922   7.902 -0.4711 -0.6573 -0.7560
17532SOL     OW54036   1.884   5.731   9.396 -1.2808  0.6928  0.1354
17532SOL    HW154037   1.940   5.687   9.332 -0.5112  0.0613  1.1970
17532SOL    HW254038   1.839   5.799   9.346  0.2053  1.0218 -0.8308
17533SOL     OW54039   1.663   3.919  10.857  0.4073 -0.1301  1.0314
17533SOL    HW154040   1.712   3.914  10.939  0.1316 -1.1620  1.1406
17533SOL    HW254041   1.697   3.998  10.814  0.4876  0.4783  2.1724
17534SOL     OW54042   1.912   3.742  10.137  0.3610 -0.3771  0.2196
17534SOL    HW154043   1.887   3.761  10.047  0.3217 -0.2327  0.2607
17534SOL    HW254044   1.978   3.673  10.130  0.4767 -0.2494  0.0723
17535SOL     OW54045   1.260   0.102  11.190 -0.1668  0.1568 -0.3017
17535SOL    HW154046   1.239   0.075  11.280 -1.7204 -0.6309 -0.8746
17535SOL    HW254047   1.321   0.035  11.160 -1.1641 -0.7043 -0.4703
17536SOL     OW54048   3.061   5.792   3.806 -0.1140  0.3483  0.1641
17536SOL    HW154049   2.970   5.776   3.782 -0.3489  1.5697  0.1771
17536SOL    HW254050   3.063   5.778   3.901  0.1402 -1.4585 -0.0667
17537SOL     OW54051   6.405   0.140   4.168  0.3451  0.1517  0.0788
17537SOL    HW154052   6.389   0.087   4.246 -1.7639  2.3479  1.2886
17537SOL    HW254053   6.319   0.148   4.126  0.3934  3.0575  0.3368
17538SOL     OW54054   0.639   0.395  11.967 -0.1104  0.1700  0.7678
17538SOL    HW154055   0.603   0.483  11.957  1.0574  0.6790  0.9003
17538SOL    HW254056   0.566   0.336  11.948 -1.0625  1.1678  1.2493
17539SOL     OW54057   7.450   6.940   6.552 -0.1149 -0.2765  0.5281
17539SOL    HW154058   7.515   6.953   6.620  0.7686  1.2936 -0.5526
17539SOL    HW254059   7.480   6.863   6.504  1.3568  0.8021 -0.3547
17540SOL     OW54060   3.685   2.078   4.953  0.5662 -0.2815 -0.0038
17540SOL    HW154061   3.732   2.035   5.024 -0.3090 -0.6026  0.3924
17540SOL    HW254062   3.684   2.013   4.883  2.6202  0.5141 -0.8622
17541SOL     OW54063   5.270   7.220   5.983  0.1243 -0.1138 -0.5915
17541SOL    HW154064   5.239   7.294   6.035  2.5017 -0.2050  1.1291
17541SOL    HW254065   5.191   7.176   5.953 -1.3453  1.4580  0.8123
17542SOL     OW54066   1.142   1.263   6.061  0.5875  0.1316  0.4357
17542SOL    HW154067   1.228   1.304   6.050  0.0427  0.9806 -1.0170
17542SOL    HW254068   1.082   1.321   6.014 -0.5941 -1.0578  0.4217
17543SOL     OW54069   7.779   5.327   5.693 -0.3769  0.8302  0.1820
17543SOL    HW154070   7.761   5.404   5.639  1.4560 -0.3163 -2.2894
17543SOL    HW254071   7.873   5.331   5.709  0.2284 -1.9073 -1.9384
17544SOL     OW54072   7.276   2.511  12.335  0.4912  0.0567  0.2820
17544SOL    HW154073   7.276   2.441  12.401 -1.1550  0.5121  0.8024
17544SOL    HW254074   7.186   2.514  12.303  1.0020  0.5988 -1.2210
17545SOL     OW54075   0.198   1.355   7.880 -0.1471 -0.8855 -0.3716
17545SOL    HW154076   0.193   1.419   7.951  0.7232  0.0113 -1.0942
17545SOL    HW254077   0.287   1.321   7.884 -0.4702 -1.7552 -0.2663
17546SOL     OW54078   3.704   6.978   7.274 -0.0358  0.5504  0.1014
17546SOL    HW154079   3.763   6.955   7.202  1.6502  1.1739  1.2309
17546SOL    HW254080   3.651   6.900   7.287  0.2177  0.1209 -1.2377
17547SOL     OW54081   1.903   0.330  10.800 -0.0227  0.4698  0.7186
17547SOL    HW154082   1.868   0.393  10.863 -2.1065  1.2848 -1.0915
17547SOL    HW254083   1.826   0.280  10.772  1.3796 -2.0271  1.1208
17548SOL     OW54084   2.715   6.011   8.258  0.0851 -0.2824 -0.0779
17548SOL    HW154085   2.711   5.966   8.174 -0.7699  1.0009 -0.7639
17548SOL    HW254086   2.678   5.948   8.320 -0.2722 -0.8567 -0.8469
17549SOL     OW54087   7.435   4.907   8.802  0.9193  0.2326  0.2202
17549SOL    HW154088   7.343   4.893   8.779  0.9750 -0.8714  0.6284
17549SOL    HW254089   7.433   4.937   8.893  0.9250  1.0674 -0.0428
17550SOL     OW54090   2.054   5.704   9.747 -0.0549 -0.1044 -0.2659
17550SOL    HW154091   2.094   5.767   9.687  2.8190  0.4584  2.0200
17550SOL    HW254092   2.116   5.631   9.751 -0.8385 -0.7481  0.9709
17551SOL     OW54093   4.356   6.532   3.548 -0.2793  0.1031 -0.0576
17551SOL    HW154094   4.450   6.521   3.562  0.0243  0.9854 -1.2459
17551SOL    HW254095   4.348   6.544   3.453 -1.3164  2.4987  0.2740
17552SOL     OW54096   2.270   7.685   4.690  0.2849  0.2203 -0.0810
17552SOL    HW154097   2.270   7.781   4.695  0.4028  0.1542  1.6972
17552SOL    HW254098   2.336   7.658   4.754  0.4487 -1.0512 -0.7654
17553SOL     OW54099   0.531   4.370  11.108 -0.0021 -0.2546  0.1612
17553SOL    HW154100   0.489   4.370  11.194  0.4481 -0.1739  0.3861
17553SOL    HW254101   0.525   4.461  11.078 -2.1524 -0.6862 -0.9020
17554SOL     OW54102   5.251   1.807  11.608 -0.0929  0.7124 -0.5193
17554SOL    HW154103   5.322   1.808  11.545  1.1746  0.4977  0.8668
17554SOL    HW254104   5.189   1.742  11.575  0.6082  0.5155 -1.4554
17555SOL     OW54105   7.743   0.776   8.290  0.8643 -0.0917  0.1207
17555SOL    HW154106   7.704   0.723   8.221 -0.6225 -0.7098  1.3640
17555SOL    HW254107   7.836   0.754   8.287  0.7167 -0.6155 -1.2188
17556SOL     OW54108   2.741   7.388   3.962  0.0015  0.3645  0.2992
17556SOL    HW154109   2.656   7.421   3.991  0.1020  1.1657 -0.2935
17556SOL    HW254110   2.732   7.379   3.867  0.9590  1.5989  0.0742
17557SOL     OW54111   6.327   1.201   7.781 -0.5219 -0.2232  0.2383
17557SOL    HW154112   6.253   1.262   7.786  0.9682  1.6591  0.7831
17557SOL    HW254113   6.347   1.181   7.873 -0.1352 -0.4200  0.1113
17558SOL     OW54114   7.925   6.609   3.803  0.1324  0.7331 -0.2485
17558SOL    HW154115   7.941   6.704   3.801  0.1627  0.7262 -2.0536
17558SOL    HW254116   7.906   6.586   3.712 -0.5454 -0.8978  0.2678
17559SOL     OW54117   1.489   5.855   4.928 -0.1644 -0.4680  0.1834
17559SOL    HW154118   1.453   5.769   4.905  0.1737 -0.9344  1.3308
17559SOL    HW254119   1.462   5.868   5.019 -1.4020  1.2725 -0.3778
17560SOL     OW54120   4.935   7.091   9.660 -0.0047  0.0643  0.3314
17560SOL    HW154121   4.954   7.025   9.727 -0.9899 -0.4184  0.1523
17560SOL    HW254122   4.852   7.130   9.688 -0.0167  0.4184 -0.1851
17561SOL     OW54123   0.237   7.748   7.726  0.2682  0.7082  0.4744
17561SOL    HW154124   0.320   7.786   7.698 -0.2462  1.3633 -0.1819
17561SOL    HW254125   0.262   7.685   7.794  1.2926  0.9347  0.3292
17562SOL     OW54126   0.876   7.768   7.615 -0.3255 -0.2744  0.1482
17562SOL    HW154127   0.851   7.791   7.705  1.7187  0.6701  0.5262
17562SOL    HW254128   0.923   7.685   7.624 -1.3808 -0.9532 -0.2891
17563SOL     OW54129   1.321   7.148  10.122  0.5176  0.3982  0.7214
17563SOL    HW154130   1.259   7.196  10.176 -0.5371 -1.8501  1.6176
17563SOL    HW254131   1.272   7.123  10.045  1.0560  0.7113  0.2671
17564SOL     OW54132   1.516   2.657   8.705 -0.0130 -0.3770 -0.0746
17564SOL    HW154133   1.479   2.595   8.767 -1.3228  0.2420 -0.1915
17564SOL    HW254134   1.448   2.724   8.695  0.7155  0.2331 -1.1543
17565SOL     OW54135   3.374   4.626  11.657 -0.3068  0.1827  0.5576
17565SOL    HW154136   3.446   4.563  11.665 -0.5825 -0.2897 -0.4291
17565SOL    HW254137   3.414   4.703  11.615 -0.0025  0.6200  1.6267
17566SOL     OW54138   1.263   7.913   8.066 -0.2205 -0.0260  0.1951
17566SOL    HW154139   1.347   7.958   8.058  0.2801 -0.9371  0.1087
17566SOL    HW254140   1.282   7.836   8.120 -1.0056 -0.2285  0.1976
17567SOL     OW54141   0.648   2.694   9.963  0.5712 -0.0417  0.3792
17567SOL    HW154142   0.741   2.676   9.978  0.9469  1.1756 -0.4104
17567SOL    HW254143   0.645   2.786   9.937 -0.7952 -0.2205 -0.1635
17568SOL     OW54144   2.839   2.239   7.886 -0.0057  0.2218 -0.0293
17568SOL    HW154145   2.912   2.223   7.826  0.3725  2.5464 -0.2915
17568SOL    HW254146   2.781   2.164   7.874  0.9350 -0.2635 -1.9701
17569SOL     OW54147   3.222   4.868   2.970 -0.0033 -0.4327 -0.3672
17569SOL    HW154148   3.305   4.851   3.014  0.3268  2.3226  0.2536
17569SOL    HW254149   3.155   4.842   3.034  0.4703  2.5661  1.5693
17570SOL     OW54150   0.810   0.432   7.323 -0.3027  0.2469 -0.2440
17570SOL    HW154151   0.901   0.405   7.336 -0.3692 -1.0096 -2.0168
17570SOL    HW254152   0.762   0.351   7.311 -1.3159  0.9695 -1.3176
17571SOL     OW54153   4.778   7.249   1.911  0.0916 -0.0978  0.1552
17571SOL    HW154154   4.762   7.255   1.816  2.0247 -1.5832 -0.3263
17571SOL    HW254155   4.863   7.206   1.918 -0.0665 -0.1258  2.6018
17572SOL     OW54156   2.094   1.524   7.630 -0.0108 -0.0078 -0.5418
17572SOL    HW154157   2.096   1.618   7.608  0.7455 -0.0842 -0.8482
17572SOL    HW254158   2.153   1.516   7.705  0.0528 -0.2622 -0.6190
17573SOL     OW54159   3.284   3.926  11.979 -0.0234 -0.1696  0.2322
17573SOL    HW154160   3.258   3.963  11.896 -0.7739 -2.4949 -0.6497
17573SOL    HW254161   3.380   3.925  11.976 -0.0185  0.8315 -0.0879
17574SOL     OW54162   6.484   3.704   3.520  0.0015  0.5883  0.2547
17574SOL    HW154163   6.571   3.676   3.492 -0.6309 -1.3579  0.1042
17574SOL    HW254164   6.437   3.623   3.539 -1.1467  1.6461  2.3327
17575SOL     OW54165   1.327   5.067   3.582 -0.2675 -0.2259  0.5592
17575SOL    HW154166   1.252   5.098   3.634  0.8234  1.8176  1.0306
17575SOL    HW254167   1.292   4.995   3.530 -2.6002  0.7427  0.6741
17576SOL     OW54168   2.785   0.940   6.683  0.1111 -0.5648  0.2520
17576SOL    HW154169   2.844   0.995   6.631  0.3059 -1.8114 -0.8990
17576SOL    HW254170   2.770   0.862   6.629 -0.0628 -1.7080  1.8578
17577SOL     OW54171   4.024   0.344   7.169  0.1316  0.2166  0.4594
17577SOL    HW154172   3.942   0.389   7.148  0.5539  0.3837 -0.9193
17577SOL    HW254173   4.006   0.299   7.252 -1.5307 -0.1925 -0.0926
17578SOL     OW54174   3.068   2.407   0.095 -0.2740  0.2701 -0.5909
17578SOL    HW154175   2.973   2.401   0.086 -0.4305  0.7178  0.5544
17578SOL    HW254176   3.092   2.331   0.148 -0.1542  0.7788  0.1001
17579SOL     OW54177   1.821   2.050   2.588  0.1359  0.1927  0.6126
17579SOL    HW154178   1.820   2.041   2.684 -0.4568  1.1914  0.7064
17579SOL    HW254179   1.906   2.089   2.569  0.5890 -0.7374  0.6452
17580SOL     OW54180   0.870   7.634   6.250 -0.0663 -0.4756  0.4543
17580SOL    HW154181   0.853   7.685   6.170  2.2781 -1.9162 -1.1006
17580SOL    HW254182   0.815   7.674   6.317  1.9141  4.4602 -0.4636
17581SOL     OW54183   3.056   1.977   6.845 -0.5195 -0.3852 -0.5924
17581SOL    HW154184   3.053   1.965   6.940 -0.9867  2.0907 -0.2062
17581SOL    HW254185   3.147   1.999   6.827 -0.5103 -0.4631 -0.6375
17582SOL     OW54186   6.522   5.945   8.230  0.1921 -0.4465 -0.3274
17582SOL    HW154187   6.556   5.951   8.141  1.7685  2.5490  0.3416
17582SOL    HW254188   6.427   5.943   8.220  0.3394 -3.1633 -2.0787
17583SOL     OW54189   7.242   6.625   8.102 -0.3569  0.3979 -0.3807
17583SOL    HW154190   7.159   6.655   8.065  0.0285  0.3177 -1.3267
17583SOL    HW254191   7.244   6.531   8.084 -0.9118  0.0096  1.3289
17584SOL     OW54192   7.125   1.806   7.664 -0.1448  0.2833 -0.0440
17584SOL    HW154193   7.189   1.739   7.643  0.5657  0.9080  0.1037
17584SOL    HW254194   7.046   1.779   7.616 -0.1546 -1.1055  0.6915
17585SOL     OW54195   4.292   0.669   9.207  0.6769  0.1368  0.1139
17585SOL    HW154196   4.199   0.688   9.210  0.1237 -2.2633  0.3071
17585SOL    HW254197   4.316   0.680   9.115  0.0370  0.0783 -0.0621
17586SOL     OW54198   4.833   0.122   5.252 -0.4644  0.4165 -0.2692
17586SOL    HW154199   4.874   0.125   5.165 -0.6775  0.2842 -0.3762
17586SOL    HW254200   4.888   0.178   5.307 -1.1475  1.6765 -0.8313
17587SOL     OW54201   3.729   2.079   7.895 -0.4924  0.3628  0.1818
17587SOL    HW154202   3.771   1.993   7.898 -0.9579  0.1589  1.1636
17587SOL    HW254203   3.659   2.068   7.829 -0.2300  0.1456 -0.0652
17588SOL     OW54204   7.111   4.374   2.863  0.3533 -0.2326  0.4181
17588SOL    HW154205   7.101   4.279   2.858  0.4280 -0.3457  1.8558
17588SOL    HW254206   7.118   4.402   2.772  4.1897 -2.0175 -0.0455
17589SOL     OW54207   6.740   4.816   9.846  0.7559 -0.1601 -0.7321
17589SOL    HW154208   6.806   4.885   9.837 -0.1991  0.6181 -2.4407
17589SOL    HW254209   6.687   4.824   9.766 -1.1142 -1.0476  0.3563
17590SOL     OW54210   6.218   1.332  11.254  0.2732 -0.0345 -0.2793
17590SOL    HW154211   6.293   1.281  11.224  1.3798  1.4906 -0.2602
17590SOL    HW254212   6.155   1.328  11.182  1.0869  0.0227 -1.0100
17591SOL     OW54213   4.881   5.453   2.898  0.2791  0.5961 -0.0551
17591SOL    HW154214   4.926   5.483   2.978  0.2101 -0.7032  0.4881
17591SOL    HW254215   4.877   5.531   2.843  0.4774  1.4892  1.1412
17592SOL     OW54216   7.584   3.173   5.198 -0.3622  0.1254  0.1618
17592SOL    HW154217   7.511   3.202   5.144 -0.0503  0.3645 -0.1405
17592SOL    HW254218   7.658   3.169   5.137 -0.3124 -0.9687  0.2733
17593SOL     OW54219   5.957   0.862   6.084 -0.1543  0.0421 -0.1567
17593SOL    HW154220   6.009   0.908   6.151 -0.4101  2.1952 -1.3179
17593SOL    HW254221   5.998   0.776   6.076  1.0792  0.4436  1.3826
17594SOL     OW54222   7.829   4.936  12.100 -0.1047 -0.0161  0.6866
17594SOL    HW154223   7.755   4.878  12.117  1.2518 -1.9012  0.4077
17594SOL    HW254224   7.808   4.976  12.015 -0.7079 -0.6894  0.5094
17595SOL     OW54225   1.473   2.588   9.621  0.7242  0.1864  0.6858
17595SOL    HW154226   1.396   2.544   9.585 -0.0111  0.7246  1.5797
17595SOL    HW254227   1.540   2.520   9.624  0.0821 -0.4617  0.5577
17596SOL     OW54228   2.746   5.778   5.883 -0.4735 -0.0238  0.1962
17596SOL    HW154229   2.675   5.714   5.885  1.0022 -1.8890 -2.2868
17596SOL    HW254230   2.824   5.729   5.908  0.9399  0.3144 -3.0981
17597SOL     OW54231   2.145   0.051   0.051 -0.0074  0.4499 -0.0290
17597SOL    HW154232   2.157   0.050  -0.044  0.6577  0.9573  0.0325
17597SOL    HW254233   2.063   0.098   0.064 -0.5452 -0.3784 -0.3803
17598SOL     OW54234   4.994   6.374   3.678 -0.0615 -0.4706  0.8233
17598SOL    HW154235   4.961   6.454   3.720  0.3336  0.2816 -0.2697
17598SOL    HW254236   4.953   6.303   3.728 -2.5814  0.4072  0.1651
17599SOL     OW54237   7.036   4.547   3.885  0.5912  0.5656 -0.0247
17599SOL    HW154238   7.078   4.510   3.962  0.7139 -2.6448 -1.4556
17599SOL    HW254239   6.943   4.550   3.907  0.7086  0.4067  0.4933
17600SOL     OW54240   4.357   3.318  10.828 -0.0759 -0.0861  0.0906
17600SOL    HW154241   4.342   3.312  10.923 -0.2398  2.0809  0.2531
17600SOL    HW254242   4.446   3.352  10.820 -0.3107  0.3992 -0.5156
17601SOL     OW54243   6.422   4.214   8.822  0.0793  0.3306 -0.1920
17601SOL    HW154244   6.375   4.249   8.897  0.0339  0.5136 -0.3067
17601SOL    HW254245   6.508   4.256   8.826  0.1479  0.1834 -0.1243
17602SOL     OW54246   2.070   1.266   1.751  0.2253  0.0475  0.3097
17602SOL    HW154247   2.095   1.265   1.844  1.8076 -2.2036 -0.0413
17602SOL    HW254248   2.132   1.327   1.710  0.9757 -0.5914  0.4514
17603SOL     OW54249   5.562   7.517   5.327  0.5588 -0.2024 -0.3486
17603SOL    HW154250   5.556   7.435   5.278 -2.1016 -0.2725 -0.0523
17603SOL    HW254251   5.538   7.585   5.263 -1.2598 -0.1213  0.3600
17604SOL     OW54252   7.721   2.212   1.331 -0.3526 -0.2663  0.3881
17604SOL    HW154253   7.634   2.217   1.370  0.0000  0.8033  1.0896
17604SOL    HW254254   7.716   2.264   1.251 -0.8317 -1.7193 -0.5654
17605SOL     OW54255   5.583   4.245   4.600 -0.2839  0.1419  0.4812
17605SOL    HW154256   5.615   4.238   4.690 -2.0746 -2.3430  1.0117
17605SOL    HW254257   5.517   4.315   4.603  1.0972  1.4946  0.5754
17606SOL     OW54258   2.343   6.768   3.482  0.4206  0.3734 -0.3155
17606SOL    HW154259   2.421   6.810   3.445  1.1748 -0.5092  0.1970
17606SOL    HW254260   2.337   6.802   3.571 -0.4022  1.2244 -0.6868
17607SOL     OW54261   5.617   4.859  10.712 -0.1527  0.4366  0.1749
17607SOL    HW154262   5.696   4.865  10.658 -0.4665 -0.0887 -0.3520
17607SOL    HW254263   5.610   4.766  10.734 -0.7027  0.4590  0.0953
17608SOL     OW54264   4.105   7.061   7.338  0.8379 -0.4564  0.6970
17608SOL    HW154265   4.049   7.009   7.280 -0.7680  1.1359  0.7195
17608SOL    HW254266   4.066   7.050   7.425 -0.5519  1.9260  0.4749
17609SOL     OW54267   4.834   2.449  11.051  0.5320  0.2147  0.3361
17609SOL    HW154268   4.750   2.423  11.014  1.8264 -1.1916 -1.7949
17609SOL    HW254269   4.826   2.544  11.063 -0.7074  0.4309 -1.7133
17610SOL     OW54270   7.800   5.781   5.652  0.3556 -0.7824  0.0230
17610SOL    HW154271   7.894   5.768   5.658  0.4634 -0.4688 -0.8038
17610SOL    HW254272   7.765   5.694   5.634  0.5887 -0.7563 -0.5951
17611SOL     OW54273   1.767   1.795   0.031 -0.9827  0.0037 -0.9708
17611SOL    HW154274   1.780   1.700   0.042 -1.1121  0.1951  1.2885
17611SOL    HW254275   1.842   1.834   0.074 -0.7134  0.9547 -2.2687
17612SOL     OW54276   0.577   6.749   1.708 -0.0466  0.3023 -0.1178
17612SOL    HW154277   0.501   6.760   1.765 -0.1826 -1.1519  0.0311
17612SOL    HW254278   0.568   6.817   1.641 -0.4623  1.3480  0.9696
17613SOL     OW54279   1.681   6.202   2.481  0.3543  0.9363  0.1331
17613SOL    HW154280   1.773   6.211   2.507  1.0863  1.0574 -2.2713
17613SOL    HW254281   1.665   6.107   2.481  0.8304  0.8510 -0.5047
17614SOL     OW54282   6.689   2.617   6.434 -0.4799  0.8374  0.3683
17614SOL    HW154283   6.613   2.612   6.491  2.4311  0.0545  4.6746
17614SOL    HW254284   6.692   2.531   6.391 -1.2893  0.3963  1.1622
17615SOL     OW54285   0.891   4.002   1.965  0.3178 -0.4162 -0.3739
17615SOL    HW154286   0.950   3.955   1.906  0.4263 -0.2081 -0.4307
17615SOL    HW254287   0.853   3.933   2.020 -0.6084 -0.7570 -1.3979
17616SOL     OW54288   4.507   7.075   4.130  0.1930  0.0036 -0.0276
17616SOL    HW154289   4.492   7.064   4.036  1.0259  1.5652 -0.3855
17616SOL    HW254290   4.597   7.044   4.143  1.6942  3.6100 -0.6248
17617SOL     OW54291   5.750   0.033   1.097  0.0457 -0.1429 -0.6495
17617SOL    HW154292   5.768  -0.054   1.062 -0.9634 -0.7522  0.2788
17617SOL    HW254293   5.703   0.078   1.027  1.6517  0.1108 -1.6016
17618SOL     OW54294   0.292   1.889   7.328 -0.1044 -0.4604 -0.0730
17618SOL    HW154295   0.244   1.897   7.411  0.3694  0.5279  0.1108
17618SOL    HW254296   0.297   1.978   7.294  1.2678 -0.5909 -0.2762
17619SOL     OW54297   5.606   7.217   8.412 -0.2314  0.4944 -0.5038
17619SOL    HW154298   5.591   7.178   8.498 -0.8923 -0.5651 -1.0744
17619SOL    HW254299   5.522   7.256   8.388 -0.3179 -0.0057 -1.0488
17620SOL     OW54300   1.280   7.590   8.359 -0.2130 -0.6343 -0.3466
17620SOL    HW154301   1.243   7.515   8.406  4.0016 -3.1489 -0.5153
17620SOL    HW254302   1.255   7.575   8.268 -0.8007 -0.8901 -0.1498
17621SOL     OW54303   4.429   5.270   3.788  0.2415  0.1835  0.0846
17621SOL    HW154304   4.408   5.184   3.752  2.9067 -0.2365 -0.7244
17621SOL    HW254305   4.395   5.332   3.723 -2.5036 -0.1392  1.1150
17622SOL     OW54306   6.156   3.499   7.029 -0.1099  0.3647 -0.3554
17622SOL    HW154307   6.202   3.578   7.000 -1.7227  0.9460 -1.5156
17622SOL    HW254308   6.218   3.428   7.015  1.1277  1.3344  0.0576
17623SOL     OW54309   7.166   0.721  10.384 -0.6401  0.3085 -0.2738
17623SOL    HW154310   7.179   0.626  10.379  1.4629  0.5206  0.1145
17623SOL    HW254311   7.152   0.748  10.293 -1.6560 -0.3946 -0.3439
17624SOL     OW54312   2.126   2.705  10.496  0.2651 -0.0079  0.2350
17624SOL    HW154313   2.200   2.675  10.549 -0.9215 -2.3410  0.7400
17624SOL    HW254314   2.051   2.655  10.529 -1.4224  1.7506 -0.7121
17625SOL     OW54315   6.020   7.335  11.881 -0.2042  0.2014  0.3361
17625SOL    HW154316   5.967   7.344  11.802 -0.4518 -3.3069 -0.0487
17625SOL    HW254317   6.111   7.345  11.850 -0.3264 -0.5704 -0.3067
17626SOL     OW54318   3.647   6.366  11.620 -0.5294 -0.2610  0.2209
17626SOL    HW154319   3.661   6.271  11.623  0.4716 -0.1460 -0.3342
17626SOL    HW254320   3.571   6.378  11.563  0.4584 -0.6462 -1.2241
17627SOL     OW54321   0.564   1.020   6.270  0.3264 -0.0556  0.0044
17627SOL    HW154322   0.608   0.979   6.196  0.1177 -0.8446  0.3042
17627SOL    HW254323   0.632   1.028   6.337  0.3663  0.0795 -0.0530
17628SOL     OW54324   6.815   0.096   8.861 -0.0365  0.0826 -0.5047
17628SOL    HW154325   6.791   0.026   8.801  2.6066 -2.6687  1.3122
17628SOL    HW254326   6.781   0.068   8.946  1.5747  0.6187  0.3813
17629SOL     OW54327   2.000   6.232   5.937 -0.3845 -0.0055  0.0098
17629SOL    HW154328   2.052   6.158   5.969  0.3075  1.2010  1.8280
17629SOL    HW254329   2.063   6.285   5.888 -0.9603 -0.7368 -1.6084
17630SOL     OW54330   7.181   2.838   2.001 -0.4092 -0.0505  0.5304
17630SOL    HW154331   7.130   2.916   2.020  1.4868  1.2116  0.7664
17630SOL    HW254332   7.217   2.810   2.085  0.7544  0.2076  0.1468
17631SOL     OW54333   0.563   4.948   9.256 -0.1573  0.2221  0.1497
17631SOL    HW154334   0.556   5.037   9.292  3.3923  0.8464 -0.2809
17631SOL    HW254335   0.561   4.960   9.161 -0.8124 -0.3370  0.0832
17632SOL     OW54336   4.533   3.947   3.009  0.5669  0.1673 -0.1805
17632SOL    HW154337   4.597   3.991   3.066  0.9315  0.5817 -0.8869
17632SOL    HW254338   4.575   3.864   2.985  0.3331 -0.0914  0.3029
17633SOL     OW54339   6.781   7.498  11.093 -0.1076  1.0776  0.5363
17633SOL    HW154340   6.699   7.514  11.139  1.0497  1.0534  2.7786
17633SOL    HW254341   6.845   7.554  11.138  1.5091 -0.4600  0.2843
17634SOL     OW54342   2.315   1.186   9.866 -0.4019 -0.2225 -0.0909
17634SOL    HW154343   2.342   1.115   9.808  0.5274 -0.6428  0.8056
17634SOL    HW254344   2.250   1.235   9.817  1.3019  0.2321 -2.0031
17635SOL     OW54345   4.661   3.530  10.015  0.0793 -0.8787  0.5144
17635SOL    HW154346   4.636   3.618   9.989  1.6761 -1.0389 -1.8849
17635SOL    HW254347   4.577   3.486  10.033 -0.8610  0.5463 -0.1783
17636SOL     OW54348   6.773   0.727   1.359  0.1383  0.1509 -0.8298
17636SOL    HW154349   6.824   0.805   1.382  0.4242 -0.7376  1.8570
17636SOL    HW254350   6.836   0.667   1.319  0.8086 -0.1781  0.6710
17637SOL     OW54351   0.107   1.311   8.448 -0.2664  0.5239  0.3522
17637SOL    HW154352   0.194   1.320   8.408 -1.0232  0.2911 -1.4792
17637SOL    HW254353   0.053   1.376   8.403 -1.6127 -1.0405 -0.4314
17638SOL     OW54354   6.599   4.613   0.460  0.0492 -0.0699 -0.0319
17638SOL    HW154355   6.559   4.594   0.545  0.2016  1.2754  0.3689
17638SOL    HW254356   6.577   4.705   0.444 -0.0143 -0.3125 -1.4769
17639SOL     OW54357   7.122   1.946  10.168 -0.1608 -0.3187  0.1405
17639SOL    HW154358   7.129   1.943  10.263 -0.8880  1.8332  0.3073
17639SOL    HW254359   7.122   2.039  10.146  2.0277 -0.7265 -2.1605
17640SOL     OW54360   4.676   5.372   6.011 -0.0610 -0.2363  0.0380
17640SOL    HW154361   4.605   5.319   5.976  1.0895 -0.8245 -1.5141
17640SOL    HW254362   4.684   5.446   5.950 -0.4273  0.7513  1.1406
17641SOL     OW54363   0.842   1.565   1.840  0.2495 -0.3632  0.3441
17641SOL    HW154364   0.878   1.505   1.905  1.4431  0.5305  0.5544
17641SOL    HW254365   0.917   1.618   1.812 -0.9168  1.7094  0.9100
17642SOL     OW54366   3.906   4.056   9.745  0.1707 -0.6751 -0.0020
17642SOL    HW154367   3.885   4.001   9.820 -1.6584  0.0535  0.0805
17642SOL    HW254368   3.822   4.068   9.700  0.2867  2.7105  0.4537
17643SOL     OW54369   5.931   1.363   6.436 -0.3693 -0.4997 -0.3541
17643SOL    HW154370   6.016   1.397   6.408 -0.8467  0.2565 -0.9299
17643SOL    HW254371   5.919   1.398   6.524 -1.4680  2.0685 -1.4397
17644SOL     OW54372   5.086   2.576  11.500 -0.0241 -0.7332 -0.1858
17644SOL    HW154373   5.022   2.553  11.432 -1.2502  1.4060  0.1594
17644SOL    HW254374   5.144   2.639  11.458  0.4023 -0.8564  0.2108
17645SOL     OW54375   2.945   2.742   0.399 -0.4617  0.2768  0.0246
17645SOL    HW154376   3.004   2.814   0.421 -0.5360  0.8105 -1.4118
17645SOL    HW254377   2.954   2.681   0.472  3.0043 -0.3831 -0.7530
17646SOL     OW54378   4.403   5.407  10.841 -0.2391  0.2192  0.3627
17646SOL    HW154379   4.352   5.474  10.798 -1.2329  0.9164  2.4699
17646SOL    HW254380   4.389   5.328  10.789 -0.2193  1.2831 -1.3287
17647SOL     OW54381   2.850   6.293   7.939  0.4116  0.3719 -0.0829
17647SOL    HW154382   2.844   6.348   8.018 -2.4932 -0.0189  0.1016
17647SOL    HW254383   2.874   6.207   7.973 -1.8656 -0.0651  0.6493
17648SOL     OW54384   4.470   1.319   0.171  0.2539 -0.2718 -0.4312
17648SOL    HW154385   4.518   1.360   0.099  1.7382  1.7840  1.6010
17648SOL    HW254386   4.438   1.236   0.134  3.0895 -0.5092 -2.7055
17649SOL     OW54387   3.405   3.932  10.076  0.4788  0.3212 -0.4938
17649SOL    HW154388   3.405   3.982   9.995 -1.2202  0.7779 -0.2366
17649SOL    HW254389   3.368   3.847  10.052 -2.0953  1.1767  0.1651
17650SOL     OW54390   2.262   3.697   3.970  0.5244  0.5241  0.0636
17650SOL    HW154391   2.346   3.653   3.959  0.2930  0.2358 -0.6563
17650SOL    HW254392   2.284   3.785   4.001  1.0369  0.1814  0.6810
17651SOL     OW54393   2.062   5.860  10.295 -0.3883  0.4439 -0.3297
17651SOL    HW154394   2.030   5.793  10.234 -0.6295  0.5247 -0.2927
17651SOL    HW254395   2.001   5.933  10.285  0.0174  0.7557 -0.5499
17652SOL     OW54396   5.651   6.463   2.922 -0.0886 -0.5000 -0.1567
17652SOL    HW154397   5.725   6.482   2.980 -0.6819 -0.1688  0.5052
17652SOL    HW254398   5.670   6.375   2.888  2.6320  1.0638 -3.1919
17653SOL     OW54399   4.679   4.537   3.004 -0.2308  0.3726 -0.1684
17653SOL    HW154400   4.660   4.443   2.999 -2.2921  0.7223  0.5044
17653SOL    HW254401   4.624   4.577   2.937  0.4343  1.1490 -0.2703
17654SOL     OW54402   2.998   1.285   7.001  0.1573 -0.4397  0.4943
17654SOL    HW154403   2.930   1.217   6.993 -1.2500  0.9172  0.5197
17654SOL    HW254404   3.071   1.251   6.950 -0.6119 -1.8539  0.2735
17655SOL     OW54405   4.578   2.194   3.382 -0.3700  0.0091  0.3435
17655SOL    HW154406   4.513   2.204   3.451  0.9025  1.6799  1.3846
17655SOL    HW254407   4.661   2.218   3.423  0.5217  0.4921 -1.6043
17656SOL     OW54408   5.566   4.134   2.252  0.3084 -0.1159  0.2790
17656SOL    HW154409   5.621   4.058   2.271 -0.1116 -0.4644  0.1283
17656SOL    HW254410   5.476   4.101   2.259  0.1180 -0.0662 -1.3958
17657SOL     OW54411   5.056   4.053   0.593 -0.1685  0.7137  0.2960
17657SOL    HW154412   5.119   4.029   0.661 -0.3791  0.6783  0.4763
17657SOL    HW254413   5.026   3.969   0.558  0.1071  0.7336  0.0045
17658SOL     OW54414   3.698   6.753   3.042 -0.5366 -0.3135  0.2935
17658SOL    HW154415   3.782   6.764   2.998  0.3313  3.5618  2.3867
17658SOL    HW254416   3.721   6.731   3.132 -1.4810  2.5772  1.3565
17659SOL     OW54417   0.282   4.606   7.875 -0.4237  0.6511  0.2396
17659SOL    HW154418   0.234   4.526   7.897 -0.8869  0.9702  0.4297
17659SOL    HW254419   0.252   4.628   7.787 -0.5683  0.8004  0.3236
17660SOL     OW54420   1.135   7.811   9.276  0.1480 -0.3551 -0.2767
17660SOL    HW154421   1.104   7.774   9.359 -2.6885  0.1003 -1.0249
17660SOL    HW254422   1.056   7.848   9.236  1.4972 -0.2293 -3.0154
17661SOL     OW54423   7.579   7.089   1.613  0.0698 -0.2306  0.1023
17661SOL    HW154424   7.590   7.159   1.549  0.1425  0.6563  1.0515
17661SOL    HW254425   7.667   7.075   1.648 -0.3221  1.0513  1.7553
17662SOL     OW54426   6.571   3.114  10.739  0.5806  0.0743 -0.0324
17662SOL    HW154427   6.525   3.089  10.660 -0.9860 -0.8171  1.1121
17662SOL    HW254428   6.622   3.191  10.714  0.0384 -0.1238 -1.8563
17663SOL     OW54429   2.144   2.104   4.653  0.4770  0.2868  0.2330
17663SOL    HW154430   2.212   2.037   4.648  1.1386  0.8327  1.3804
17663SOL    HW254431   2.090   2.077   4.728 -0.6451 -0.1894 -0.7215
17664SOL     OW54432   0.451   6.002   7.407  0.4250  0.0255  0.3807
17664SOL    HW154433   0.383   6.050   7.455 -0.8746 -2.3311  1.1031
17664SOL    HW254434   0.512   5.974   7.475  0.0254 -1.0600  0.3161
17665SOL     OW54435   3.005   5.812   7.774 -0.0488 -0.0285 -0.3563
17665SOL    HW154436   3.008   5.739   7.712 -0.7001  1.3421 -2.0953
17665SOL    HW254437   3.075   5.793   7.836  0.7122 -1.4432 -1.5723
17666SOL     OW54438   0.325   0.883   0.497  0.1337 -0.8115  0.1341
17666SOL    HW154439   0.408   0.842   0.474  0.1252 -1.0787  0.5618
17666SOL    HW254440   0.278   0.890   0.414  1.2761  0.9631 -0.4057
17667SOL     OW54441   1.296   5.260  12.205 -0.6089  0.3303  0.0387
17667SOL    HW154442   1.303   5.353  12.184  0.4995  0.0772 -0.8355
17667SOL    HW254443   1.249   5.257  12.288  1.1959  1.7981  1.1805
17668SOL     OW54444   7.752   6.832   2.054 -0.5986  0.0137  0.3913
17668SOL    HW154445   7.691   6.892   2.012 -1.3244 -0.7543  0.3382
17668SOL    HW254446   7.731   6.837   2.147  0.1947  0.7924  0.5428
17669SOL     OW54447   2.273   2.044   1.796  0.3515 -0.1942  0.0695
17669SOL    HW154448   2.289   1.961   1.750 -1.1537 -0.6356  0.2777
17669SOL    HW254449   2.197   2.081   1.751 -0.1999  0.1076  1.2252
17670SOL     OW54450   4.438   2.740   5.663  0.2426 -0.0888 -0.3015
17670SOL    HW154451   4.376   2.739   5.590 -0.4607  1.6506  0.2096
17670SOL    HW254452   4.482   2.825   5.655  0.5632 -0.1194  0.9663
17671SOL     OW54453   0.842   7.444   3.620  0.6253 -0.4901  0.1815
17671SOL    HW154454   0.763   7.412   3.665  0.3329 -1.1926 -0.8016
17671SOL    HW254455   0.874   7.368   3.571  2.8791 -0.7105  1.8277
17672SOL     OW54456   6.721   3.895   4.757 -0.0913 -0.4653  0.1903
17672SOL    HW154457   6.666   3.956   4.806 -0.9319  0.2156 -1.5392
17672SOL    HW254458   6.685   3.809   4.777  0.3092 -0.3288  1.6378
17673SOL     OW54459   3.156   6.068   9.449  0.2287  0.1238 -0.7191
17673SOL    HW154460   3.221   6.063   9.380  1.1933 -1.8514  0.2697
17673SOL    HW254461   3.120   5.979   9.456 -1.7365  0.8784 -0.4163
17674SOL     OW54462   7.397   0.718   2.729  0.1646  0.2643 -0.3655
17674SOL    HW154463   7.335   0.781   2.691  0.7925 -0.0518 -2.0279
17674SOL    HW254464   7.368   0.633   2.696  0.4230 -0.0964  0.3254
17675SOL     OW54465   2.003   7.459  11.955 -0.0387  0.3342  0.0891
17675SOL    HW154466   1.983   7.526  12.019  0.1188  0.0286  0.4623
17675SOL    HW254467   1.926   7.402  11.954  0.6332 -0.6279  1.2541
17676SOL     OW54468   0.221   1.265   8.982 -0.2912  0.6128 -0.4459
17676SOL    HW154469   0.192   1.330   9.046  1.3046 -0.0517  1.0325
17676SOL    HW254470   0.162   1.190   8.996  0.1225  0.4232  0.3854
17677SOL     OW54471   2.999   6.242   9.626 -0.1600  0.0160 -0.1014
17677SOL    HW154472   3.020   6.320   9.575 -1.6286 -1.4036 -3.1586
17677SOL    HW254473   3.056   6.174   9.592  0.4821 -0.5140  1.8975
17678SOL     OW54474   7.337   4.937  11.745 -0.2857  0.1780  0.2487
17678SOL    HW154475   7.294   4.854  11.766 -0.4165 -0.4159 -2.1442
17678SOL    HW254476   7.289   5.002  11.797 -2.2670 -0.8318 -0.2255
17679SOL     OW54477   1.138   0.949   2.805  0.1608  0.1793  0.2113
17679SOL    HW154478   1.214   0.927   2.858 -0.2172  0.3289  0.8183
17679SOL    HW254479   1.158   0.912   2.719  0.9292  0.2401  0.3552
17680SOL     OW54480   6.451   0.913   4.113  0.3924  0.6243  0.1426
17680SOL    HW154481   6.544   0.917   4.089  0.0722  1.8684 -1.0582
17680SOL    HW254482   6.415   0.995   4.080 -1.3962 -0.3943 -0.6030
17681SOL     OW54483   4.171   3.618   7.801 -0.3882 -0.0171  0.0975
17681SOL    HW154484   4.164   3.692   7.861 -0.1608  1.4630 -1.6240
17681SOL    HW254485   4.080   3.592   7.785 -0.6163  1.2814 -0.8849
17682SOL     OW54486   1.682   1.103   3.692 -0.1763 -0.3458 -0.0466
17682SOL    HW154487   1.761   1.083   3.642 -0.0129  0.7949 -0.2664
17682SOL    HW254488   1.649   1.017   3.720  1.4822 -0.8008  0.6162
17683SOL     OW54489   3.533   2.180  10.257  0.1156 -0.0742  0.0229
17683SOL    HW154490   3.450   2.144  10.287 -0.4494  0.7613 -0.4934
17683SOL    HW254491   3.552   2.135  10.175 -0.0421  0.0244 -0.0676
17684SOL     OW54492   5.395   1.911   1.605  0.0643  0.5337  0.1414
17684SOL    HW154493   5.480   1.955   1.605  0.4123 -0.0317  1.9955
17684SOL    HW254494   5.415   1.821   1.632 -0.9105 -0.1497 -1.2926
17685SOL     OW54495   4.875   7.111   6.112 -0.4151 -0.8311  0.1203
17685SOL    HW154496   4.951   7.081   6.162 -0.3865 -0.9250  0.0208
17685SOL    HW254497   4.874   7.206   6.126  1.7756 -0.2623 -2.6076
17686SOL     OW54498   0.118   7.116   0.734 -0.0335 -1.0200  0.1056
17686SOL    HW154499   0.100   7.138   0.642  0.0675  2.5782  0.7716
17686SOL    HW254500   0.150   7.198   0.772  1.3173 -2.7323  3.0617
17687SOL     OW54501   5.985   6.009   6.944  0.1361 -0.2298  0.1299
17687SOL    HW154502   6.013   6.095   6.975 -0.0508  0.1071 -0.6049
17687SOL    HW254503   5.960   5.961   7.023  2.4208 -0.4295  0.8009
17688SOL     OW54504   6.385   2.202   2.373  0.0182  1.0442  0.2996
17688SOL    HW154505   6.379   2.107   2.380  0.4129  1.0365  0.5881
17688SOL    HW254506   6.477   2.222   2.391  0.6923  1.2220 -2.8327
17689SOL     OW54507   0.652   5.962   4.496 -0.1564 -0.2994  0.5578
17689SOL    HW154508   0.567   5.925   4.470 -0.0996  1.2395 -2.2530
17689SOL    HW254509   0.707   5.886   4.514 -1.9264 -1.3404  1.9044
17690SOL     OW54510   1.999   3.127   7.134 -0.1184  0.0654  0.1798
17690SOL    HW154511   1.997   3.203   7.192  0.6932 -1.4334  2.3324
17690SOL    HW254512   2.059   3.066   7.177 -1.0290 -1.9569 -1.2322
17691SOL     OW54513   3.470   1.088   3.023  0.6138 -0.2706  0.1434
17691SOL    HW154514   3.545   1.058   2.971  0.0893 -1.8424  0.2164
17691SOL    HW254515   3.477   1.039   3.105 -0.4138 -0.3620  0.1893
17692SOL     OW54516   7.842   0.891   6.832 -0.5026 -0.5021  0.4404
17692SOL    HW154517   7.755   0.871   6.797  0.0165  0.8553 -1.8355
17692SOL    HW254518   7.849   0.986   6.827  0.9125 -0.5537  1.0953
17693SOL     OW54519   3.745   2.526   6.778 -0.9626  0.1993 -0.1053
17693SOL    HW154520   3.662   2.500   6.817 -1.8067  1.6037 -0.8650
17693SOL    HW254521   3.774   2.600   6.831  0.3947 -0.9550  0.8315
17694SOL     OW54522   5.320   6.170   0.121  0.0642  0.4838  0.2220
17694SOL    HW154523   5.303   6.255   0.082  0.4763 -0.3456 -1.8737
17694SOL    HW254524   5.242   6.118   0.105  0.3284  0.0496  0.2939
17695SOL     OW54525   2.319   1.532   3.106  0.2651  0.4274 -0.4995
17695SOL    HW154526   2.361   1.448   3.126  1.6339  1.5071  1.4586
17695SOL    HW254527   2.339   1.588   3.181 -2.9764  1.7045 -0.4236
17696SOL     OW54528   0.477   5.077  10.610 -0.1896  0.3910  0.0635
17696SOL    HW154529   0.538   5.125  10.553 -0.2928  1.2479  0.6524
17696SOL    HW254530   0.402   5.058  10.553  0.8903 -1.2961 -0.8612
17697SOL     OW54531   5.870   3.481   3.331 -0.2193  0.5000  0.0395
17697SOL    HW154532   5.884   3.560   3.280 -0.0424  0.8056  0.5498
17697SOL    HW254533   5.956   3.461   3.368  0.2484 -1.1162 -1.7301
17698SOL     OW54534   1.245   4.941  10.418  0.3680 -0.1832 -0.6006
17698SOL    HW154535   1.257   4.997  10.494  1.8320 -1.0686 -0.1431
17698SOL    HW254536   1.217   5.001  10.348  0.3851  0.8534  0.2580
17699SOL     OW54537   2.486   1.560   7.819 -0.2852  0.6516 -0.6398
17699SOL    HW154538   2.463   1.469   7.804  0.0344  0.4804 -0.0849
17699SOL    HW254539   2.580   1.559   7.839 -0.5597  0.9524  0.7162
17700SOL     OW54540   1.674   6.043   4.826 -0.2755 -0.2028 -0.1721
17700SOL    HW154541   1.613   5.984   4.869 -0.7348  1.3091  1.3392
17700SOL    HW254542   1.627   6.076   4.749  0.3049 -2.3866 -1.5597
17701SOL     OW54543   6.531   1.233   9.593 -0.0125  0.6020  0.2720
17701SOL    HW154544   6.582   1.309   9.569  0.3142  0.6086  0.9450
17701SOL    HW254545   6.537   1.229   9.689  0.7751 -0.8092  0.1938
17702SOL     OW54546   1.139   4.270  10.446  0.4931 -0.5360  0.0036
17702SOL    HW154547   1.175   4.320  10.520  2.6841 -1.5013 -0.3341
17702SOL    HW254548   1.046   4.259  10.468  0.9214 -0.2070  2.2847
17703SOL     OW54549   7.776   7.320   3.424 -0.0302 -0.0068 -0.4013
17703SOL    HW154550   7.864   7.359   3.424  0.0236 -0.0907  0.8272
17703SOL    HW254551   7.718   7.392   3.397  0.1437  0.7670  1.1987
17704SOL     OW54552   5.898   0.586   4.553  0.2207 -0.2041 -0.4621
17704SOL    HW154553   5.863   0.569   4.641  0.8888  0.4504 -0.0587
17704SOL    HW254554   5.940   0.505   4.528 -1.6627 -1.0742 -1.0229
17705SOL     OW54555   3.240   5.457   6.759  0.0789  0.0471 -0.3250
17705SOL    HW154556   3.309   5.494   6.814 -0.0411 -0.6499  0.3099
17705SOL    HW254557   3.179   5.530   6.745 -0.0822  0.1487  0.7911
17706SOL     OW54558   0.634   7.731   4.366 -0.0246  0.6612  0.2053
17706SOL    HW154559   0.544   7.757   4.347  0.0301  0.1064 -0.9138
17706SOL    HW254560   0.688   7.803   4.334  0.0420 -0.0692 -1.3946
17707SOL     OW54561   1.785   6.204   6.819 -0.4251 -0.4171 -0.5927
17707SOL    HW154562   1.880   6.192   6.815 -0.2019  0.1525  1.6454
17707SOL    HW254563   1.770   6.287   6.774  0.7235  1.5825  2.3774
17708SOL     OW54564   6.034   2.747   9.736 -0.1777 -0.9071  0.3029
17708SOL    HW154565   6.129   2.732   9.727 -0.0947  0.2390 -1.0080
17708SOL    HW254566   5.994   2.682   9.679 -0.2239 -1.5580  1.0472
17709SOL     OW54567   1.547   2.207  11.772 -0.6758 -0.1670  0.0044
17709SOL    HW154568   1.638   2.181  11.759 -0.2818  0.8966  0.5158
17709SOL    HW254569   1.539   2.291  11.728 -1.0929  0.2977  0.9479
17710SOL     OW54570   0.086   3.857  10.803  0.8057  0.1092 -0.5623
17710SOL    HW154571   0.154   3.812  10.752 -0.3948 -1.6809 -0.6820
17710SOL    HW254572   0.072   3.800  10.878  0.5475  1.2786  0.2978
17711SOL     OW54573   6.525   1.766   7.979  0.4388 -0.0067 -0.0184
17711SOL    HW154574   6.517   1.862   7.978  0.0234 -0.0411 -0.9209
17711SOL    HW254575   6.436   1.735   7.995 -0.0954 -0.2670 -2.8828
17712SOL     OW54576   0.850   2.549  11.784 -0.3890 -0.0262 -0.0725
17712SOL    HW154577   0.794   2.562  11.861  1.1701 -0.6988  1.2263
17712SOL    HW254578   0.855   2.635  11.743  0.9913  1.0573  2.1754
17713SOL     OW54579   6.224   5.597   2.078  0.5190  0.1590 -0.4294
17713SOL    HW154580   6.220   5.684   2.039  1.0885 -0.1067 -1.1021
17713SOL    HW254581   6.210   5.537   2.005 -1.5414 -0.3092  0.2973
17714SOL     OW54582   1.261   4.907   2.086 -0.2540 -0.3270  0.1564
17714SOL    HW154583   1.239   5.000   2.077  0.4424 -0.2783 -1.3862
17714SOL    HW254584   1.184   4.861   2.054  0.1793 -0.2202 -1.1096
17715SOL     OW54585   0.117   3.289   9.798  0.6276 -0.0930  0.4467
17715SOL    HW154586   0.121   3.358   9.865  0.3280 -0.7939  1.1991
17715SOL    HW254587   0.177   3.319   9.730  1.4560  0.3113  1.3273
17716SOL     OW54588   0.448   5.192   5.574 -0.7499  0.3162 -0.2503
17716SOL    HW154589   0.460   5.098   5.589 -1.3043 -0.0299 -1.8377
17716SOL    HW254590   0.408   5.224   5.655 -1.0719 -0.9300  0.1024
17717SOL     OW54591   3.177   2.890   9.522  0.3546 -0.7781  0.3234
17717SOL    HW154592   3.083   2.898   9.538  0.1276  0.8998 -1.4678
17717SOL    HW254593   3.217   2.954   9.581 -0.0014  1.2289 -1.4987
17718SOL     OW54594   2.830   6.483  12.029  0.4994  0.1077  0.1357
17718SOL    HW154595   2.750   6.531  12.007  0.2569  0.1449  1.0241
17718SOL    HW254596   2.887   6.494  11.954 -0.5424 -0.3803 -0.7608
17719SOL     OW54597   0.921   3.891  11.858 -0.0688  0.0019  0.1874
17719SOL    HW154598   0.865   3.813  11.859  1.1586 -0.9007  0.0196
17719SOL    HW254599   1.010   3.857  11.859  0.5651  1.2943 -2.6684
17720SOL     OW54600   1.030   7.446   1.897 -0.7099 -0.2042 -0.2183
17720SOL    HW154601   1.059   7.358   1.919  2.2457  0.7309 -0.0466
17720SOL    HW254602   1.009   7.442   1.803  0.5963 -0.8182 -0.4965
17721SOL     OW54603   0.141   7.299  12.144 -0.4026 -0.0350 -0.0133
17721SOL    HW154604   0.117   7.221  12.094 -2.3268  0.5418 -0.0786
17721SOL    HW254605   0.184   7.264  12.223 -0.5217 -1.1126 -0.4089
17722SOL     OW54606   0.745   4.799   9.658 -0.2461 -0.0141 -0.0101
17722SOL    HW154607   0.808   4.806   9.730  0.0237  1.4228 -0.3556
17722SOL    HW254608   0.660   4.795   9.702 -0.2699  3.1033  0.4335
17723SOL     OW54609   3.273   1.414   8.521  0.3312 -0.2059  0.1099
17723SOL    HW154610   3.290   1.321   8.506 -1.3870 -0.4110 -0.8220
17723SOL    HW254611   3.209   1.438   8.453  1.9267  2.0607 -0.7093
17724SOL     OW54612   0.879   6.757   1.905  0.5977 -0.3417  0.3326
17724SOL    HW154613   0.854   6.671   1.870 -0.9892 -0.2819  1.1954
17724SOL    HW254614   0.795   6.800   1.924  1.2577  2.0875 -1.6008
17725SOL     OW54615   6.274   2.358   0.781 -0.8637 -0.1130  0.2632
17725SOL    HW154616   6.305   2.291   0.720  1.8470 -0.1171  1.5012
17725SOL    HW254617   6.189   2.326   0.811 -1.3226 -1.1344 -1.8804
17726SOL     OW54618   2.542   2.459   9.944 -0.4603 -0.0832 -0.2187
17726SOL    HW154619   2.536   2.530  10.008  0.9583  0.4609 -0.6533
17726SOL    HW254620   2.471   2.477   9.882 -0.4951  0.6172  0.0106
17727SOL     OW54621   2.156   5.597   8.802  0.3614 -0.0502  0.0565
17727SOL    HW154622   2.105   5.562   8.875  0.9002  0.3569  0.6375
17727SOL    HW254623   2.115   5.681   8.781  0.7889  0.2807  0.5286
17728SOL     OW54624   7.297   2.404   2.266 -0.3625  0.0561  0.1239
17728SOL    HW154625   7.381   2.448   2.278  0.1248 -0.1005 -2.1225
17728SOL    HW254626   7.310   2.349   2.189 -1.9392 -1.5390  0.9244
17729SOL     OW54627   2.279   6.870   5.308  0.4597  0.3159 -0.3324
17729SOL    HW154628   2.294   6.950   5.358  1.1700 -0.0877  0.1097
17729SOL    HW254629   2.344   6.808   5.340 -0.1668 -0.4915 -0.5714
17730SOL     OW54630   5.169   6.079   8.220 -0.3190  0.3243 -0.3657
17730SOL    HW154631   5.120   6.099   8.141 -0.4157  0.0657 -0.3719
17730SOL    HW254632   5.118   6.120   8.291 -0.5572  0.0394 -0.3696
17731SOL     OW54633   3.178   6.715   1.309  0.1540  0.6569  0.4570
17731SOL    HW154634   3.251   6.770   1.335 -1.0349  4.3709 -3.0312
17731SOL    HW254635   3.216   6.651   1.249  1.0696 -0.3454  2.0408
17732SOL     OW54636   5.246   2.334  11.517  0.8470 -0.5392  0.1444
17732SOL    HW154637   5.313   2.360  11.453 -0.7165  0.7972 -1.0478
17732SOL    HW254638   5.197   2.414  11.534 -0.3318 -1.4314  1.1324
17733SOL     OW54639   1.798   7.622   0.485 -0.0610  0.1512  0.3658
17733SOL    HW154640   1.836   7.535   0.496  0.8866  0.1824 -2.1315
17733SOL    HW254641   1.871   7.682   0.499  0.2902  0.3197 -1.8455
17734SOL     OW54642   0.810   7.943   4.246 -0.6255 -0.6620 -0.5217
17734SOL    HW154643   0.864   7.964   4.170 -2.5286  0.8962 -1.5276
17734SOL    HW254644   0.873   7.938   4.318  0.9295  0.8269 -1.6699
17735SOL     OW54645   6.803   3.154   6.651  0.4597  0.7552  0.0706
17735SOL    HW154646   6.758   3.225   6.606  0.1646  0.4334 -0.1440
17735SOL    HW254647   6.879   3.196   6.692  0.5579  1.1096 -0.4620
17736SOL     OW54648   6.422   0.531  12.441  0.6322  0.5086  0.3577
17736SOL    HW154649   6.478   0.594  12.487  0.3519  1.6699 -0.8663
17736SOL    HW254650   6.394   0.576  12.362  0.5941 -1.2374 -0.6676
17737SOL     OW54651   6.197   4.029   9.881 -0.5246  0.1543  0.4172
17737SOL    HW154652   6.194   4.113   9.927  0.5011  0.0381  0.7103
17737SOL    HW254653   6.198   3.964   9.951  1.0551 -0.0224  0.2561
17738SOL     OW54654   5.929   1.630   7.241 -0.1600 -0.3926 -0.6285
17738SOL    HW154655   5.923   1.585   7.325  3.0037  0.0918 -0.0117
17738SOL    HW254656   5.862   1.699   7.246 -0.7836 -1.0588  1.0085
17739SOL     OW54657   0.786   4.856   4.141 -0.5192  0.3306 -0.0174
17739SOL    HW154658   0.721   4.924   4.157 -1.5460 -0.7315  0.5334
17739SOL    HW254659   0.746   4.799   4.075 -1.0853 -1.4809  1.7981
17740SOL     OW54660   3.867   2.248   1.873  0.4423  0.3948  0.8372
17740SOL    HW154661   3.901   2.337   1.861  0.4257  0.5099  1.6339
17740SOL    HW254662   3.941   2.191   1.850 -0.0675  0.5447 -1.4592
17741SOL     OW54663   3.145   6.956  10.778 -0.3944 -0.0854  0.0307
17741SOL    HW154664   3.143   6.968  10.683  0.7859 -0.8329 -0.1149
17741SOL    HW254665   3.058   6.923  10.800 -1.1559  1.4430 -0.5765
17742SOL     OW54666   3.614   5.958   0.386  0.2375  0.3973  0.3264
17742SOL    HW154667   3.693   6.011   0.398  0.9466 -0.8365  1.3282
17742SOL    HW254668   3.609   5.905   0.466 -1.2555 -0.0069 -0.0155
17743SOL     OW54669   6.505   2.595  12.261  0.6898 -0.0225 -0.2279
17743SOL    HW154670   6.482   2.658  12.330 -0.8198 -1.5043  0.6879
17743SOL    HW254671   6.458   2.626  12.184  0.9244  0.6228 -0.1206
17744SOL     OW54672   0.827   0.720   8.164  0.6840  0.6082 -0.0981
17744SOL    HW154673   0.733   0.720   8.145  0.3054 -0.6226  1.5193
17744SOL    HW254674   0.848   0.629   8.183  2.3323  0.7776 -0.8859
17745SOL     OW54675   0.392   6.609   8.382  0.2079 -0.1118  0.3208
17745SOL    HW154676   0.377   6.554   8.458 -1.9261  0.1361  0.1278
17745SOL    HW254677   0.400   6.547   8.309 -2.6974 -0.2594  0.0204
17746SOL     OW54678   6.433   6.699   9.892  0.4883 -0.1441 -0.2254
17746SOL    HW154679   6.431   6.616   9.844 -3.0204  0.5944 -1.6853
17746SOL    HW254680   6.525   6.724   9.894  1.4831 -3.3756 -0.9205
17747SOL     OW54681   5.369   3.021   5.209 -0.3414  0.1805 -0.0531
17747SOL    HW154682   5.463   3.029   5.193 -0.5094 -0.5310 -1.5775
17747SOL    HW254683   5.340   2.952   5.149 -1.5158 -0.9731  1.7342
17748SOL     OW54684   7.201   0.995   7.881  0.2640 -0.4783 -0.3501
17748SOL    HW154685   7.165   1.007   7.969 -1.5901 -0.2244 -1.1035
17748SOL    HW254686   7.135   1.030   7.822  1.3786 -0.8067 -1.8834
17749SOL     OW54687   7.475   7.409  10.519 -0.0606  0.0682  0.2203
17749SOL    HW154688   7.448   7.356  10.594 -0.6542  1.4477  1.0180
17749SOL    HW254689   7.571   7.401  10.518 -0.2266 -3.0851 -1.3001
17750SOL     OW54690   4.900   0.890   0.455 -0.0482  0.0100  0.3962
17750SOL    HW154691   4.845   0.968   0.449 -1.0484 -0.4631  2.4404
17750SOL    HW254692   4.895   0.865   0.547  0.4246 -2.3616 -0.1710
17751SOL     OW54693   1.921   7.601   6.640  0.3450  0.0856  0.3674
17751SOL    HW154694   1.959   7.543   6.574  0.9017 -0.0392  0.7890
17751SOL    HW254695   1.974   7.585   6.718 -1.3541 -1.0375  1.3424
17752SOL     OW54696   4.293   1.740   1.226  0.5379 -0.1889 -0.1171
17752SOL    HW154697   4.225   1.739   1.159  0.6393 -1.2812 -0.2247
17752SOL    HW254698   4.254   1.696   1.301  0.4274  1.0261  0.5626
17753SOL     OW54699   5.330   5.969   6.783  0.0116  0.5256 -0.6024
17753SOL    HW154700   5.348   5.888   6.830 -1.8033 -0.0093 -0.7530
17753SOL    HW254701   5.412   5.988   6.736  0.1703 -1.7735 -1.3740
17754SOL     OW54702   0.926   2.179   8.414  0.5316 -0.7436 -0.2779
17754SOL    HW154703   0.877   2.228   8.480 -0.6787 -0.9338 -1.0168
17754SOL    HW254704   1.005   2.149   8.460  0.7382  0.8971  0.5054
17755SOL     OW54705   1.755   2.685  10.074 -0.2986 -0.2102  0.3014
17755SOL    HW154706   1.848   2.681  10.053 -0.2406 -0.3741  0.5832
17755SOL    HW254707   1.743   2.772  10.112 -0.5513  0.3771 -1.0853
17756SOL     OW54708   6.489   2.271   6.530  0.0622 -0.3374 -0.0705
17756SOL    HW154709   6.543   2.309   6.599 -0.5884  0.2116  0.1425
17756SOL    HW254710   6.400   2.270   6.566 -0.1114 -1.0505 -0.4905
17757SOL     OW54711   7.286   4.541   9.511  0.4188  0.0888 -0.3978
17757SOL    HW154712   7.265   4.555   9.418 -0.1484  1.0407 -0.1434
17757SOL    HW254713   7.329   4.622   9.538  0.5699 -0.1796  0.1786
17758SOL     OW54714   0.348   2.763   6.030  0.0992  0.0034 -0.6779
17758SOL    HW154715   0.413   2.745   6.097 -0.8858 -2.7348 -0.3579
17758SOL    HW254716   0.268   2.721   6.061 -2.3343  4.1863 -0.4800
17759SOL     OW54717   7.692   3.458  12.013  0.1432 -0.6932  0.3334
17759SOL    HW154718   7.602   3.489  12.028  1.0189  1.7729  0.9946
17759SOL    HW254719   7.725   3.439  12.100  1.0436  0.9176  0.3780
17760SOL     OW54720   4.472   0.719   9.721 -0.6476 -0.1165  0.1956
17760SOL    HW154721   4.433   0.759   9.798  1.0705 -0.0364  1.0553
17760SOL    HW254722   4.502   0.793   9.668 -0.3250 -0.2072  0.2509
17761SOL     OW54723   5.785   1.748   9.131 -0.0697  0.2370  0.0267
17761SOL    HW154724   5.743   1.819   9.083  0.6771  0.9991  0.4818
17761SOL    HW254725   5.781   1.775   9.223  0.7488 -0.0202  0.1476
17762SOL     OW54726   2.328   4.827   5.984 -0.0181  0.1109 -0.1277
17762SOL    HW154727   2.246   4.868   6.010 -0.9655 -1.0652 -1.1028
17762SOL    HW254728   2.342   4.758   6.049  0.7579  0.9411  0.6172
17763SOL     OW54729   0.853   1.717   0.031  0.0175  0.5270  0.4177
17763SOL    HW154730   0.848   1.622   0.021 -1.5340  0.7269 -1.2169
17763SOL    HW254731   0.862   1.751  -0.058  0.8335  1.9296  0.9877
17764SOL     OW54732   3.991   6.148   2.177  0.2694 -0.2333 -0.6250
17764SOL    HW154733   4.011   6.090   2.250 -0.2130 -1.6948 -1.6090
17764SOL    HW254734   4.073   6.193   2.157  0.3314  0.4167  0.9839
17765SOL     OW54735   3.659   6.133   6.459 -0.2618 -0.6453 -0.4083
17765SOL    HW154736   3.726   6.092   6.405  1.8882  0.3605  1.3076
17765SOL    HW254737   3.628   6.207   6.407  0.2879 -0.8638 -1.0667
17766SOL     OW54738   3.593   3.358   7.308 -0.4163 -0.4026 -0.4566
17766SOL    HW154739   3.560   3.389   7.224  2.0921  0.9442 -1.0569
17766SOL    HW254740   3.655   3.426   7.336  1.7707 -2.6229  0.5427
17767SOL     OW54741   5.291   3.625   4.076  0.4085  0.3681  0.1498
17767SOL    HW154742   5.232   3.585   4.140  0.3027  1.5231  0.7955
17767SOL    HW254743   5.377   3.590   4.097  0.0190 -1.1288 -0.6335
17768SOL     OW54744   5.040   0.132   1.099  0.5269 -0.0393 -0.5977
17768SOL    HW154745   5.101   0.077   1.050  1.5123  1.5601 -1.2704
17768SOL    HW254746   5.065   0.121   1.191  0.4407 -1.0100 -0.6898
17769SOL     OW54747   1.824   5.931   9.215  0.1896 -0.1223  0.1553
17769SOL    HW154748   1.770   6.001   9.251  1.1507  1.3487 -1.1170
17769SOL    HW254749   1.818   5.942   9.120  0.5338 -1.6553 -0.0704
17770SOL     OW54750   0.274   5.461   9.724  0.1370  0.0154 -0.3297
17770SOL    HW154751   0.369   5.453   9.731  0.3181  2.0399  0.0618
17770SOL    HW254752   0.247   5.384   9.673  1.7865 -1.3772  0.8028
17771SOL     OW54753   1.963   1.198  11.467 -0.0166 -0.4007  0.6679
17771SOL    HW154754   2.037   1.257  11.455 -0.4631 -0.0393 -0.4573
17771SOL    HW254755   1.991   1.115  11.429  0.3557 -0.7281  1.6240
17772SOL     OW54756   7.011   2.308   0.625  0.3535 -0.5691  0.4669
17772SOL    HW154757   6.959   2.228   0.624  1.0809 -1.0871  1.8989
17772SOL    HW254758   6.948   2.378   0.608 -0.3275 -1.4056 -0.5489
17773SOL     OW54759   6.190   6.248  10.053 -0.3356 -0.2076 -0.7153
17773SOL    HW154760   6.169   6.333  10.015  0.5683  1.0913  1.5346
17773SOL    HW254761   6.285   6.240  10.042 -0.3277 -0.6398 -0.3502
17774SOL     OW54762   1.676   7.653  10.396 -0.0977  0.5156 -0.3731
17774SOL    HW154763   1.610   7.587  10.377 -0.0617 -0.3217  1.9925
17774SOL    HW254764   1.626   7.730  10.425 -0.0846  0.6463 -0.6977
17775SOL     OW54765   2.550   6.297   5.940  0.8566  0.0253 -0.2037
17775SOL    HW154766   2.621   6.329   5.995  0.4218 -0.4893  0.6776
17775SOL    HW254767   2.474   6.350   5.966  0.6792 -0.1249 -0.4114
17776SOL     OW54768   6.242   5.335   2.671  0.7515  0.9881  0.4869
17776SOL    HW154769   6.300   5.406   2.641  0.9701 -0.1833 -2.2283
17776SOL    HW254770   6.290   5.255   2.649 -1.9691 -0.0612 -2.3485
17777SOL     OW54771   2.425   5.057  10.641 -0.1482  0.2041  0.3396
17777SOL    HW154772   2.490   5.127  10.649 -0.2500  0.1510  2.2089
17777SOL    HW254773   2.347   5.102  10.608  0.7113  0.3185 -1.6431
17778SOL     OW54774   5.693   5.521  10.019 -0.5754  0.1522  0.5034
17778SOL    HW154775   5.618   5.576   9.998  0.1716  1.0364  0.0499
17778SOL    HW254776   5.758   5.582  10.054  0.4805 -0.3319 -0.5394
17779SOL     OW54777   6.381   0.709  10.835 -0.3267 -0.3581  0.0873
17779SOL    HW154778   6.459   0.698  10.889 -0.3819  1.2447  0.5604
17779SOL    HW254779   6.318   0.753  10.892 -1.2060 -0.6747 -0.6076
17780SOL     OW54780   6.703   5.747  11.626 -0.3596 -0.5742 -0.4669
17780SOL    HW154781   6.702   5.756  11.721  2.4426 -0.3500 -0.3857
17780SOL    HW254782   6.708   5.836  11.592 -1.3203 -0.6524 -0.8493
17781SOL     OW54783   3.270   3.138  11.646 -0.0993 -0.3948  0.4976
17781SOL    HW154784   3.285   3.058  11.697  1.2072  0.1726  1.0707
17781SOL    HW254785   3.259   3.206  11.712 -0.0230  0.0838  0.0210
17782SOL     OW54786   3.851   5.366   8.594 -0.3422  0.1948 -0.3162
17782SOL    HW154787   3.829   5.445   8.545 -0.8450 -0.8412 -1.8172
17782SOL    HW254788   3.939   5.343   8.564 -0.4886 -0.2126 -0.4493
17783SOL     OW54789   1.053   6.027   7.616 -0.4850  0.0360  0.0835
17783SOL    HW154790   1.029   6.074   7.696  1.4592  0.9031  0.2249
17783SOL    HW254791   1.148   6.041   7.608 -0.4697 -0.8654 -1.8389
17784SOL     OW54792   4.822   7.906   2.407  0.3938 -0.0285  0.1831
17784SOL    HW154793   4.917   7.897   2.412  0.3017 -0.7994  0.7061
17784SOL    HW254794   4.789   7.861   2.485 -0.4331 -0.4433 -0.3909
17785SOL     OW54795   2.827   3.729   0.801  0.2584  0.5322 -0.9079
17785SOL    HW154796   2.828   3.778   0.883 -0.6068  0.9921 -1.1567
17785SOL    HW254797   2.911   3.750   0.760  0.1235  1.4089 -0.7645
17786SOL     OW54798   2.426   3.535   3.147 -0.1928  0.1384  0.0931
17786SOL    HW154799   2.345   3.585   3.161 -0.6867 -0.8984  1.1599
17786SOL    HW254800   2.483   3.560   3.220 -0.5800 -1.0451  0.8506
17787SOL     OW54801   3.803   4.940  12.066  0.1972 -0.0426 -0.6173
17787SOL    HW154802   3.721   4.986  12.085  0.2500 -0.3593  0.4889
17787SOL    HW254803   3.850   4.942  12.149  0.1892 -2.0975 -0.5134
17788SOL     OW54804   7.416   2.005   7.589 -0.6366 -0.2948 -0.0055
17788SOL    HW154805   7.380   1.933   7.641 -0.2621 -1.8887 -1.8767
17788SOL    HW254806   7.498   2.028   7.633 -0.2222 -1.7503  0.0178
17789SOL     OW54807   3.007   1.617  11.625  0.0824 -0.3785  0.4242
17789SOL    HW154808   2.947   1.562  11.575  1.1270 -0.3692 -0.8947
17789SOL    HW254809   3.060   1.555  11.675  0.3146 -0.5105  0.0243
17790SOL     OW54810   5.826   0.619   8.549  0.5662  0.4435  0.1865
17790SOL    HW154811   5.839   0.664   8.633 -0.5364 -0.4397  0.8661
17790SOL    HW254812   5.915   0.603   8.517  1.0234  0.5821  1.3106
17791SOL     OW54813   7.550   4.456   7.545 -0.1463  0.3156 -0.2392
17791SOL    HW154814   7.456   4.447   7.529 -0.0943 -0.7585 -0.0524
17791SOL    HW254815   7.569   4.390   7.612  0.5305  1.3331  0.6056
17792SOL     OW54816   5.905   1.994   5.981  0.1625 -0.2786 -0.7933
17792SOL    HW154817   5.935   2.085   5.986  1.5385 -0.6996 -1.1994
17792SOL    HW254818   5.835   1.996   5.915  0.0094  0.5131 -0.6195
17793SOL     OW54819   5.060   4.814   2.604  0.2232 -0.2044 -0.3361
17793SOL    HW154820   5.137   4.803   2.659  0.4879 -1.1122 -0.8730
17793SOL    HW254821   5.094   4.819   2.515 -0.3784 -1.6295 -0.6826
17794SOL     OW54822   4.970   2.666   8.209 -0.1516  0.1008  0.0722
17794SOL    HW154823   4.951   2.583   8.253  0.1907  0.4203  0.8447
17794SOL    HW254824   4.967   2.731   8.279 -1.8109  0.9606 -0.7442
17795SOL     OW54825   6.750   5.859  12.270  0.2131  0.2433 -0.2644
17795SOL    HW154826   6.790   5.775  12.248  2.5059  1.6395 -1.9539
17795SOL    HW254827   6.770   5.872  12.363 -1.2484 -1.5513  0.3496
17796SOL     OW54828   2.656   6.936   3.080  0.2753 -0.0640  0.8676
17796SOL    HW154829   2.655   7.019   3.032  1.4715  0.7237  2.0982
17796SOL    HW254830   2.567   6.902   3.071 -0.0134  0.9261 -0.3684
17797SOL     OW54831   1.197   0.701  11.694 -0.2757  0.0914  0.0871
17797SOL    HW154832   1.131   0.679  11.628  1.3760 -0.2544 -1.5219
17797SOL    HW254833   1.258   0.627  11.693  0.3701  0.5835  1.2457
17798SOL     OW54834   7.714   6.244   7.320  0.3021  0.4366 -0.0743
17798SOL    HW154835   7.739   6.275   7.407 -0.2983  0.6664  0.0223
17798SOL    HW254836   7.632   6.197   7.334  0.6792 -0.3289 -0.3784
17799SOL     OW54837   1.565   0.164   6.874  0.1975 -0.7119 -0.6303
17799SOL    HW154838   1.542   0.227   6.942 -0.2925  0.7966 -2.1282
17799SOL    HW254839   1.511   0.088   6.893 -0.0145 -0.2763  0.5884
17800SOL     OW54840   0.427   5.624   2.895 -0.0404  0.1750  0.0463
17800SOL    HW154841   0.376   5.620   2.814  0.0838 -1.0013  0.0097
17800SOL    HW254842   0.516   5.599   2.869 -0.3557 -1.9720  0.7923
17801SOL     OW54843   3.794   4.834   0.403 -0.1743  0.3677  0.4865
17801SOL    HW154844   3.781   4.794   0.316  0.8755  1.5183 -0.2422
17801SOL    HW254845   3.770   4.766   0.465  2.0816 -1.6666 -0.6904
17802SOL     OW54846   0.973   2.696   8.851 -0.2062 -0.0206 -0.6552
17802SOL    HW154847   1.068   2.685   8.850 -0.3645 -1.5337 -1.2073
17802SOL    HW254848   0.942   2.629   8.913 -0.8883  0.7386 -0.1536
17803SOL     OW54849   0.622   0.046   2.994 -1.0001 -0.3558 -0.4153
17803SOL    HW154850   0.562  -0.020   2.959  2.2486 -4.0847  0.2690
17803SOL    HW254851   0.646   0.013   3.081  1.4110  1.2905 -0.3375
17804SOL     OW54852   2.251   3.412   5.896  0.1250 -0.4608  0.2049
17804SOL    HW154853   2.242   3.492   5.845  0.9179 -1.6478 -1.9330
17804SOL    HW254854   2.240   3.342   5.832  1.2165 -2.0460  1.6646
17805SOL     OW54855   2.614   0.033  10.997 -0.1987  0.6563  0.4278
17805SOL    HW154856   2.528   0.036  10.956  0.1635 -0.2134 -0.4427
17805SOL    HW254857   2.670  -0.009  10.931  0.8228  0.9605  1.0866
17806SOL     OW54858   7.015   1.324  10.973 -0.3607 -0.0886  0.1108
17806SOL    HW154859   7.105   1.321  10.942 -0.7635 -0.0885 -1.0971
17806SOL    HW254860   6.962   1.333  10.894 -1.5013 -1.2782  0.7051
17807SOL     OW54861   4.718   5.600   2.204 -0.1537 -0.1668 -0.6046
17807SOL    HW154862   4.638   5.618   2.154 -0.4568  1.4642  0.4130
17807SOL    HW254863   4.772   5.678   2.192  0.8325 -0.8057 -0.4038
17808SOL     OW54864   0.887   2.560   5.578 -0.1708 -0.2597  0.5639
17808SOL    HW154865   0.968   2.563   5.630 -0.4204  0.6859  0.9262
17808SOL    HW254866   0.851   2.649   5.585 -0.0908 -0.0270 -1.4295
17809SOL     OW54867   1.415   2.997   5.329  0.5089 -0.0555  0.0564
17809SOL    HW154868   1.462   3.042   5.259  1.1930 -2.1576 -0.9302
17809SOL    HW254869   1.345   2.949   5.284 -0.3397  0.1738  1.0842
17810SOL     OW54870   2.652   7.002   6.788  0.6846  0.1946 -0.3206
17810SOL    HW154871   2.701   6.941   6.843  2.0317  1.1751 -0.3822
17810SOL    HW254872   2.703   7.007   6.707  1.4559  2.5128  0.2330
17811SOL     OW54873   3.134   1.644   6.413 -0.5370  0.0448  0.3740
17811SOL    HW154874   3.164   1.735   6.405 -0.8889  0.1938  0.7164
17811SOL    HW254875   3.040   1.651   6.430 -0.6412 -0.3982 -0.0109
17812SOL     OW54876   3.395   1.143   4.689 -0.1143  0.0843 -0.0086
17812SOL    HW154877   3.448   1.066   4.708 -0.2566  0.0250  0.1549
17812SOL    HW254878   3.392   1.147   4.594 -0.5720 -0.4438 -0.0284
17813SOL     OW54879   6.599   5.061   3.898 -0.8597 -0.4839  0.1654
17813SOL    HW154880   6.516   5.014   3.898 -0.4368 -1.2565  0.6238
17813SOL    HW254881   6.609   5.092   3.988  1.0646 -3.5759  1.1453
17814SOL     OW54882   6.129   3.928   2.286  0.0264  0.2050 -0.3513
17814SOL    HW154883   6.161   3.996   2.345 -1.9281  0.6385  0.2698
17814SOL    HW254884   6.147   3.846   2.332 -1.1255  0.5199  0.7170
17815SOL     OW54885   7.691   1.692  12.359 -0.9399  0.3440  0.0223
17815SOL    HW154886   7.745   1.760  12.399  0.8253  0.1067 -1.8093
17815SOL    HW254887   7.752   1.623  12.335 -2.1463 -0.2893 -1.4107
17816SOL     OW54888   2.233   2.098   8.619 -0.4760  0.5418  0.4294
17816SOL    HW154889   2.182   2.169   8.581  0.2767  0.4871 -0.7136
17816SOL    HW254890   2.200   2.019   8.577  0.8051  0.5465 -0.6548
17817SOL     OW54891   7.041   1.076   0.269 -0.2838  0.5599 -0.6713
17817SOL    HW154892   6.946   1.072   0.263 -0.2792  0.8982 -0.9232
17817SOL    HW254893   7.070   0.987   0.247 -0.5400  0.4604 -0.6042
17818SOL     OW54894   7.430   6.010   7.521 -0.5330 -0.1601 -0.4270
17818SOL    HW154895   7.427   5.926   7.567 -1.8113 -0.2315 -0.5945
17818SOL    HW254896   7.354   6.058   7.554 -0.3380  0.5628 -1.0064
17819SOL     OW54897   0.452   1.923   7.638  0.4428  0.1354 -0.2829
17819SOL    HW154898   0.513   1.946   7.568  0.6128 -0.9562 -0.5021
17819SOL    HW254899   0.386   1.993   7.635  0.4231  0.0940 -1.5561
17820SOL     OW54900   1.377   7.388   7.017 -0.2895 -0.4247 -0.1630
17820SOL    HW154901   1.378   7.396   6.922 -2.1246 -0.9822 -0.2720
17820SOL    HW254902   1.407   7.474   7.049 -1.6029  0.4704 -1.2465
17821SOL     OW54903   4.770   1.397   2.476 -0.5250 -0.0351 -0.2279
17821SOL    HW154904   4.723   1.363   2.553  0.2197 -0.2098  0.1601
17821SOL    HW254905   4.733   1.348   2.402 -0.7572 -0.3766  0.1067
17822SOL     OW54906   0.998   3.140   8.231  0.2694  0.0905  0.6738
17822SOL    HW154907   1.036   3.104   8.311  0.3601 -2.2768 -0.3797
17822SOL    HW254908   1.066   3.128   8.164  0.3285  2.3254  0.2251
17823SOL     OW54909   2.381   0.439   2.741  0.5317  1.0434 -0.7345
17823SOL    HW154910   2.428   0.408   2.818 -1.1713 -2.6534 -0.9266
17823SOL    HW254911   2.333   0.516   2.771  0.6230  0.2483  1.6514
17824SOL     OW54912   7.069   3.440   4.291 -0.7141 -0.2705  0.2012
17824SOL    HW154913   7.116   3.392   4.359  1.7793  1.8879  0.1525
17824SOL    HW254914   7.116   3.421   4.210 -0.8013  0.7824 -0.1192
17825SOL     OW54915   4.208   5.587   2.138 -0.3613  0.0470  0.3714
17825SOL    HW154916   4.213   5.633   2.222  1.4498  0.7561 -0.0694
17825SOL    HW254917   4.119   5.551   2.135 -0.4899  0.0323  2.5638
17826SOL     OW54918   1.159   4.221   0.959 -0.3173 -0.1892  0.8898
17826SOL    HW154919   1.123   4.242   0.873 -0.9014 -1.5594  0.7690
17826SOL    HW254920   1.249   4.254   0.957 -1.0499  1.9276  0.6309
17827SOL     OW54921   7.328   7.507   4.195  0.3476  0.0533 -0.9180
17827SOL    HW154922   7.277   7.570   4.245 -1.9070 -1.0382 -1.6953
17827SOL    HW254923   7.280   7.424   4.204  1.3618 -0.7886 -2.6206
17828SOL     OW54924   1.622   2.145   9.212  0.5811 -0.2812  0.2112
17828SOL    HW154925   1.661   2.222   9.253 -0.6566 -0.0239  0.9404
17828SOL    HW254926   1.528   2.166   9.206  0.5206 -0.8754 -1.5028
17829SOL     OW54927   4.714   6.028   4.161  0.4146 -0.2351 -0.4713
17829SOL    HW154928   4.768   5.951   4.144  0.0300 -0.2737 -1.6127
17829SOL    HW254929   4.641   5.996   4.214  0.8191 -0.4296 -0.0224
17830SOL     OW54930   3.369   1.735   3.747 -0.9080  0.1373 -0.0685
17830SOL    HW154931   3.346   1.801   3.682 -0.8113  0.2163 -0.0221
17830SOL    HW254932   3.451   1.697   3.716 -0.6878  0.4091  0.1832
17831SOL     OW54933   6.194   1.255   4.743 -0.5193  0.8543 -0.6635
17831SOL    HW154934   6.155   1.302   4.817 -0.5476  1.9366 -1.3500
17831SOL    HW254935   6.150   1.291   4.666  0.7990  1.0448 -1.3438
17832SOL     OW54936   0.820   2.816   2.480  0.3461  0.1513 -0.7624
17832SOL    HW154937   0.818   2.772   2.395  1.1854 -0.3347 -0.5464
17832SOL    HW254938   0.899   2.782   2.523 -1.8124 -2.2453  1.6451
17833SOL     OW54939   6.896   5.876   5.466  0.1563 -0.2152 -0.1670
17833SOL    HW154940   6.897   5.930   5.545  0.1253 -2.0000  1.1003
17833SOL    HW254941   6.988   5.872   5.440 -0.0263  2.0036 -1.4552
17834SOL     OW54942   7.951   6.082  10.961 -0.0350 -0.2314  0.5952
17834SOL    HW154943   7.897   6.115  10.888 -0.0806  0.1721  0.8091
17834SOL    HW254944   7.889   6.036  11.017 -0.1432  0.1630  0.7993
17835SOL     OW54945   2.040   5.177   4.539  0.3307  0.0314 -0.2736
17835SOL    HW154946   1.963   5.228   4.562 -0.8076 -1.2007 -1.2185
17835SOL    HW254947   2.067   5.210   4.453 -1.2682 -1.8231 -1.5594
17836SOL     OW54948   7.131   2.068   2.503  0.4220  0.4654 -0.3271
17836SOL    HW154949   7.211   2.063   2.451 -0.5265  1.3570 -1.9758
17836SOL    HW254950   7.083   1.988   2.481  1.9059 -1.4221  2.6713
17837SOL     OW54951   6.295   1.048  12.184  0.2059  0.4806  0.1339
17837SOL    HW154952   6.293   1.143  12.198  0.5519  0.2977  1.5594
17837SOL    HW254953   6.310   1.011  12.271 -1.2799 -0.9538 -0.1734
17838SOL     OW54954   3.278   4.727   0.472 -0.1500  0.4940 -0.3852
17838SOL    HW154955   3.315   4.692   0.391 -0.8026  0.3250 -0.6154
17838SOL    HW254956   3.327   4.808   0.488  1.5206 -0.5942  0.2652
17839SOL     OW54957   4.827   3.210  11.493  0.2162 -0.0056 -0.2386
17839SOL    HW154958   4.773   3.288  11.488  0.2380  0.0712  0.5977
17839SOL    HW254959   4.909   3.239  11.533 -0.2785 -0.6775  1.3820
17840SOL     OW54960   4.022   2.537   7.541 -0.2670  0.3587  0.0803
17840SOL    HW154961   4.079   2.461   7.551 -1.3146 -0.4169  0.4609
17840SOL    HW254962   4.041   2.592   7.617 -1.0499 -0.6271  1.0428
17841SOL     OW54963   6.443   1.638   0.901 -0.5955  0.1388 -0.6492
17841SOL    HW154964   6.379   1.626   0.831 -0.1776 -0.9571 -0.8662
17841SOL    HW254965   6.528   1.638   0.856 -0.2444 -1.6822 -0.0824
17842SOL     OW54966   5.540   3.833  11.137  0.5535  0.1596  0.4411
17842SOL    HW154967   5.532   3.780  11.057  0.0708  0.1792  0.4733
17842SOL    HW254968   5.623   3.805  11.175  0.7282  0.0580 -0.0008
17843SOL     OW54969   3.909   6.611   4.872 -0.1515  0.9428 -0.2989
17843SOL    HW154970   3.986   6.591   4.818  0.6246 -0.8165  1.3203
17843SOL    HW254971   3.840   6.556   4.836  0.5166 -0.6647  0.7580
17844SOL     OW54972   0.788   0.029   6.248 -0.2648  0.8016 -0.1893
17844SOL    HW154973   0.796   0.029   6.343 -0.5493  2.3316 -0.1429
17844SOL    HW254974   0.877   0.014   6.216 -0.2762 -0.4621  0.2857
17845SOL     OW54975   1.362   0.486  11.656 -0.0460  0.0635  0.3682
17845SOL    HW154976   1.425   0.475  11.727  0.7646  0.1039 -0.3209
17845SOL    HW254977   1.397   0.433  11.584 -1.0985 -0.3659  0.1412
17846SOL     OW54978   0.742   1.291   7.528  0.2489 -0.0236 -0.3329
17846SOL    HW154979   0.750   1.214   7.471 -0.8916 -0.4615  0.0649
17846SOL    HW254980   0.751   1.256   7.616  0.0630  0.3522 -0.1640
17847SOL     OW54981   6.897   5.684   4.274  0.1028 -0.7774 -0.3406
17847SOL    HW154982   6.969   5.721   4.325 -0.6469  1.0811 -0.5355
17847SOL    HW254983   6.818   5.710   4.322 -0.4846 -2.2912 -0.4313
17848SOL     OW54984   4.292   5.222   8.075  0.0406  0.1577  0.1951
17848SOL    HW154985   4.362   5.238   8.139 -1.2209  0.8657  1.4556
17848SOL    HW254986   4.299   5.295   8.013 -1.0501  1.6459  1.7182
17849SOL     OW54987   0.075   7.372   3.366  0.0957  0.4218  0.1117
17849SOL    HW154988   0.167   7.347   3.360 -0.0367  0.0616 -0.5456
17849SOL    HW254989   0.076   7.462   3.398  0.6139 -0.1032  1.6298
17850SOL     OW54990   6.607   3.876   6.116  0.0239 -0.0368 -0.0111
17850SOL    HW154991   6.513   3.895   6.112 -0.5948 -2.1171  2.0459
17850SOL    HW254992   6.646   3.955   6.153 -0.9503  0.7551 -0.6378
17851SOL     OW54993   3.683   3.688   0.747 -0.1177  0.3624  0.2582
17851SOL    HW154994   3.663   3.613   0.803  0.1691 -0.0217 -0.1481
17851SOL    HW254995   3.599   3.731   0.734 -0.3775 -0.1867  0.0721
17852SOL     OW54996   5.085   0.075   8.286  0.5876 -0.8035  0.1961
17852SOL    HW154997   5.129  -0.007   8.263  0.9588 -0.5690  0.0648
17852SOL    HW254998   5.094   0.129   8.207  0.1647 -0.7113  0.2095
17853SOL     OW54999   4.176   7.786   8.573  0.1288 -0.3309 -0.3409
17853SOL    HW155000   4.167   7.800   8.668  0.7283 -0.0607 -0.3135
17853SOL    HW255001   4.143   7.698   8.558 -0.3544 -0.2204  0.0607
17854SOL     OW55002   6.064   2.799  11.967  0.0209  0.2205  0.0895
17854SOL    HW155003   6.044   2.891  11.986  1.2669  1.1332 -2.6225
17854SOL    HW255004   6.159   2.794  11.967 -0.0051 -0.7564 -1.0459
17855SOL     OW55005   3.282   3.765  10.986 -0.2009  0.4436  0.4373
17855SOL    HW155006   3.287   3.843  10.930 -2.9342  1.3743  1.3407
17855SOL    HW255007   3.317   3.793  11.070  3.3044 -0.7816 -0.4118
17856SOL     OW55008   2.601   4.299  11.812 -0.1672  1.1603  0.0729
17856SOL    HW155009   2.566   4.376  11.768 -0.7381  1.4796  1.0348
17856SOL    HW255010   2.580   4.226  11.754 -1.4925  1.4824  0.1024
17857SOL     OW55011   0.784   7.900  11.491  0.5010  0.1966 -0.1832
17857SOL    HW155012   0.700   7.896  11.537  0.9886  1.5077  0.8886
17857SOL    HW255013   0.848   7.868  11.554  0.6230 -3.1324 -1.7651
17858SOL     OW55014   2.330   7.120   5.707 -0.5756 -0.3300  0.3276
17858SOL    HW155015   2.382   7.193   5.740 -1.7382  0.1720  1.1437
17858SOL    HW255016   2.255   7.115   5.767 -1.4816 -0.9931 -0.8109
17859SOL     OW55017   1.042   4.707   3.522 -0.6105 -0.1938 -0.2123
17859SOL    HW155018   0.984   4.654   3.469  0.0929 -1.8409  0.5743
17859SOL    HW255019   0.989   4.734   3.597 -0.2329 -2.3985  0.9386
17860SOL     OW55020   2.297   4.198   7.658 -0.7772 -0.2037  0.4014
17860SOL    HW155021   2.228   4.154   7.707 -1.3779  1.4222  1.0902
17860SOL    HW255022   2.379   4.166   7.697 -1.1954 -0.4879  1.0608
17861SOL     OW55023   6.657   0.514  12.119  0.1129 -0.2405 -0.3062
17861SOL    HW155024   6.594   0.502  12.190 -0.9530 -0.2823 -1.2230
17861SOL    HW255025   6.689   0.604  12.131 -0.5467 -0.0204 -0.1567
17862SOL     OW55026   7.720   3.692   8.626 -0.0337  0.4533 -0.1682
17862SOL    HW155027   7.787   3.703   8.559  0.5407 -1.4401  0.0403
17862SOL    HW255028   7.754   3.624   8.683 -1.2410  0.8967  1.1369
17863SOL     OW55029   0.014   3.681   4.453  0.2232 -0.0783 -0.5658
17863SOL    HW155030   0.057   3.705   4.535  0.1574 -2.9762  0.4410
17863SOL    HW255031  -0.079   3.686   4.472  0.1987 -1.7623 -0.0374
17864SOL     OW55032   0.690   1.972  10.511  0.1985  0.1530 -0.1843
17864SOL    HW155033   0.721   1.962  10.421 -1.4862 -0.3564 -0.7334
17864SOL    HW255034   0.663   1.884  10.537 -3.0884  0.8967 -0.6555
17865SOL     OW55035   6.184   5.903   4.135  0.0104 -0.2668 -0.2127
17865SOL    HW155036   6.179   5.828   4.195  1.6437  0.4962  0.9500
17865SOL    HW255037   6.165   5.866   4.049  1.7730 -2.2672  0.1709
17866SOL     OW55038   7.883   5.108  10.506 -0.6677 -0.1518  0.2613
17866SOL    HW155039   7.941   5.184  10.508  1.0858 -1.3712 -0.9245
17866SOL    HW255040   7.853   5.098  10.597 -0.8881  1.8694  0.4425
17867SOL     OW55041   7.817   7.015   6.882  0.4743 -0.6427  0.3474
17867SOL    HW155042   7.793   7.039   6.792 -2.2894  2.0296  1.6229
17867SOL    HW255043   7.791   6.924   6.890 -3.5990  0.2864 -0.3829
17868SOL     OW55044   4.302   1.747   9.542 -0.0629  0.7456 -0.4463
17868SOL    HW155045   4.287   1.788   9.627 -0.5092  0.2424 -0.2800
17868SOL    HW255046   4.397   1.750   9.530  0.7230 -3.7231  2.3947
17869SOL     OW55047   0.256   0.003   9.470  0.7516 -0.3028  0.7609
17869SOL    HW155048   0.239  -0.089   9.450 -0.0378  0.1035 -0.5580
17869SOL    HW255049   0.169   0.044   9.468  1.2332  0.7250 -0.1164
17870SOL     OW55050   7.104   4.393   2.578 -0.5809 -0.1237 -0.1406
17870SOL    HW155051   7.153   4.332   2.523  2.3089  1.5107  0.4196
17870SOL    HW255052   7.031   4.423   2.523 -0.2136 -1.6486 -1.5172
17871SOL     OW55053   2.986   4.109   6.823  0.1346 -0.5484 -0.1861
17871SOL    HW155054   3.059   4.167   6.799 -0.8658  0.0552 -1.9624
17871SOL    HW255055   2.989   4.039   6.758 -0.2318 -1.1180  0.3968
17872SOL     OW55056   2.664   1.159   1.536  0.5207  0.4708  0.3818
17872SOL    HW155057   2.596   1.125   1.478 -0.5924  2.7932  0.2224
17872SOL    HW255058   2.630   1.146   1.624  0.4108  0.5420  0.3502
17873SOL     OW55059   3.761   4.643  10.325  0.3139 -0.5179  0.1653
17873SOL    HW155060   3.801   4.657  10.410 -2.5483  1.9151  1.2902
17873SOL    HW255061   3.712   4.561  10.335  0.3346 -0.4648  0.7261
17874SOL     OW55062   5.324   1.404   3.938 -0.5005  0.4484  0.6464
17874SOL    HW155063   5.332   1.496   3.917  1.9270  0.0429 -0.5124
17874SOL    HW255064   5.320   1.359   3.853 -2.6932 -0.5092  1.1689
17875SOL     OW55065   7.484   3.189   1.127  0.2004  0.2140 -0.5164
17875SOL    HW155066   7.405   3.157   1.171 -1.7008  1.8847 -2.4642
17875SOL    HW255067   7.528   3.242   1.193 -0.0720 -1.0456  0.7311
17876SOL     OW55068   0.661   4.409   4.557 -0.1792 -0.9508 -0.4615
17876SOL    HW155069   0.626   4.463   4.486  0.7958 -0.8752 -0.9047
17876SOL    HW255070   0.585   4.362   4.591 -1.0278  0.5905 -0.1559
17877SOL     OW55071   5.075   4.785   1.570 -0.0742 -0.3560  0.1407
17877SOL    HW155072   4.989   4.792   1.610  0.1885 -1.2971  0.9025
17877SOL    HW255073   5.136   4.816   1.637  0.0948  2.3303 -1.0888
17878SOL     OW55074   5.699   7.245   3.277 -0.1702 -0.2215  0.2210
17878SOL    HW155075   5.674   7.326   3.233  4.1496  0.3737 -1.6695
17878SOL    HW255076   5.644   7.178   3.237 -0.6159  1.1692 -1.6327
17879SOL     OW55077   1.831   4.392   9.336  0.2184 -0.3047 -0.0709
17879SOL    HW155078   1.753   4.396   9.281  0.3554 -0.3802 -0.2738
17879SOL    HW255079   1.801   4.417   9.423 -0.3737 -1.8850  0.2149
17880SOL     OW55080   1.991   2.852   7.850 -0.8374  0.0891  0.5957
17880SOL    HW155081   1.914   2.860   7.907 -0.6342  3.0508  0.5956
17880SOL    HW255082   2.023   2.941   7.839  0.2148 -0.5452 -2.7525
17881SOL     OW55083   7.900   7.654   9.326 -0.1361 -0.0980  0.1514
17881SOL    HW155084   7.890   7.678   9.419 -1.5942  1.9236 -0.4521
17881SOL    HW255085   7.814   7.621   9.301 -1.2794  3.6583 -1.5209
17882SOL     OW55086   7.541   2.423   8.999  0.4842  0.5144  0.1000
17882SOL    HW155087   7.470   2.479   9.030  0.4775  0.6423 -0.1445
17882SOL    HW255088   7.617   2.449   9.052  0.4998  0.8073 -0.0635
17883SOL     OW55089   4.257   4.178   2.437 -0.4785 -0.0965 -0.0202
17883SOL    HW155090   4.310   4.102   2.460 -3.1067 -1.7419  1.0430
17883SOL    HW255091   4.223   4.159   2.350  0.1280  0.6479 -0.4311
17884SOL     OW55092   6.697   3.487   8.730 -0.2795 -0.5418 -0.2227
17884SOL    HW155093   6.723   3.396   8.712 -1.0917 -0.4750 -1.9190
17884SOL    HW255094   6.660   3.483   8.818 -2.0556 -2.3092 -0.9446
17885SOL     OW55095   3.895   7.343   1.806 -0.3237  0.8755 -0.1456
17885SOL    HW155096   3.989   7.357   1.800 -0.2278  1.5651  1.9840
17885SOL    HW255097   3.886   7.252   1.834 -0.2399  0.9851  0.2499
17886SOL     OW55098   5.320   0.152   8.711 -0.2431  0.1975  0.1391
17886SOL    HW155099   5.286   0.184   8.628 -1.9967 -0.9371  0.3720
17886SOL    HW255100   5.263   0.191   8.777 -1.0419 -1.6231  0.5578
17887SOL     OW55101   6.419   3.479   9.115 -0.0301 -0.1499 -0.4982
17887SOL    HW155102   6.439   3.487   9.208 -1.0270 -1.7340 -0.1117
17887SOL    HW255103   6.350   3.544   9.100  0.3015  0.2811 -0.1939
17888SOL     OW55104   5.577   4.500   1.175  0.1233 -0.2657 -0.0488
17888SOL    HW155105   5.565   4.524   1.267 -0.4736 -0.9290  0.0531
17888SOL    HW255106   5.583   4.404   1.176  0.0946 -0.2754 -0.7067
17889SOL     OW55107   3.805   5.212   4.892  0.3048  0.1271 -0.4236
17889SOL    HW155108   3.802   5.201   4.988 -0.7052 -0.0263 -0.4605
17889SOL    HW255109   3.854   5.136   4.861  1.5333  0.7083  0.0419
17890SOL     OW55110   3.588   6.034   5.922 -0.1785  0.0048 -0.0021
17890SOL    HW155111   3.605   6.043   6.016 -0.2499  0.7768 -0.0586
17890SOL    HW255112   3.492   6.041   5.914 -0.0396  1.9698 -0.3269
17891SOL     OW55113   0.655   3.375   3.758  0.2216  0.3506  0.4906
17891SOL    HW155114   0.675   3.339   3.845 -1.6502 -1.3571  0.2898
17891SOL    HW255115   0.574   3.423   3.771 -0.1270 -0.0089 -0.3276
17892SOL     OW55116   1.710   7.659   9.176  0.0861  0.0639 -0.7007
17892SOL    HW155117   1.709   7.602   9.253  0.6127 -1.5233 -1.8163
17892SOL    HW255118   1.636   7.629   9.123  0.1274  0.6853 -1.1179
17893SOL     OW55119   5.044   1.285  11.888  0.0396  0.0311 -0.4016
17893SOL    HW155120   5.029   1.193  11.867  0.7838 -0.2910  0.3870
17893SOL    HW255121   5.074   1.283  11.979  1.4335  0.9197 -0.8110
17894SOL     OW55122   1.916   7.623   7.430  0.2160 -0.6420  0.0035
17894SOL    HW155123   1.904   7.622   7.335 -0.1122 -0.4203  0.0397
17894SOL    HW255124   1.981   7.692   7.445 -0.5611  0.1002  0.0258
17895SOL     OW55125   4.060   7.682   5.164  0.2529  0.5167  0.1426
17895SOL    HW155126   3.972   7.646   5.172  0.2568  0.2170 -1.0063
17895SOL    HW255127   4.059   7.729   5.081  2.0842 -2.2056 -1.5546
17896SOL     OW55128   5.810   6.827   4.016  0.0194  0.2851  0.3766
17896SOL    HW155129   5.850   6.740   4.015  2.7001  1.4138 -0.4621
17896SOL    HW255130   5.870   6.880   4.068 -1.1198  1.8364  0.1792
17897SOL     OW55131   4.732   1.333   4.159  0.3214 -0.7308 -0.1691
17897SOL    HW155132   4.684   1.306   4.081  1.4555  0.7089 -1.4121
17897SOL    HW255133   4.807   1.382   4.126  1.0103 -0.3426  1.8199
17898SOL     OW55134   2.569   4.610   9.366 -0.2789 -0.2543 -0.4209
17898SOL    HW155135   2.649   4.570   9.399 -0.0017  0.7632  0.1558
17898SOL    HW255136   2.523   4.538   9.323  0.4299 -1.0949  0.1874
17899SOL     OW55137   0.125   6.713   4.860  0.8942  0.2963 -0.5942
17899SOL    HW155138   0.056   6.766   4.820  1.8665  1.3519 -0.9040
17899SOL    HW255139   0.148   6.759   4.940  0.1507 -0.9094  0.3479
17900SOL     OW55140   4.077   7.758   5.436  0.4007 -0.1119 -0.2109
17900SOL    HW155141   4.169   7.782   5.448  0.7841 -1.1708 -0.8474
17900SOL    HW255142   4.077   7.706   5.356 -0.6800 -0.5325  0.0549
17901SOL     OW55143   0.430   6.663   4.771 -0.2542  0.2189 -0.0698
17901SOL    HW155144   0.348   6.689   4.813  1.2475  2.5051  1.7032
17901SOL    HW255145   0.430   6.709   4.687 -0.6977  0.3245 -0.0124
17902SOL     OW55146   7.184   2.490   2.648  0.3175  0.0914  0.1120
17902SOL    HW155147   7.157   2.577   2.678 -1.6809  0.0536 -1.4013
17902SOL    HW255148   7.265   2.506   2.599  0.3750  0.9756  0.4737
17903SOL     OW55149   5.287   2.314   3.907  0.1053  0.2748  0.3736
17903SOL    HW155150   5.348   2.339   3.837 -1.1539 -1.9340 -1.6629
17903SOL    HW255151   5.339   2.256   3.963  0.4305  0.0278 -0.1757
17904SOL     OW55152   6.724   1.389   3.861  0.5686 -0.7039 -0.5770
17904SOL    HW155153   6.771   1.306   3.863  0.8174 -0.5589 -0.2135
17904SOL    HW255154   6.631   1.365   3.864  0.6267 -0.9810 -0.9934
17905SOL     OW55155   6.396   4.908   9.940  0.5049 -0.3089  0.2787
17905SOL    HW155156   6.354   4.987   9.975  0.8118 -0.4522  0.9838
17905SOL    HW255157   6.460   4.942   9.878  1.8991  0.1211  1.8849
17906SOL     OW55158   5.128   6.190   5.253  0.3775  0.0082  0.0263
17906SOL    HW155159   5.224   6.182   5.247  0.3906  0.4006 -0.3816
17906SOL    HW255160   5.114   6.276   5.292  0.2057 -0.6943  1.5478
17907SOL     OW55161   4.458   7.276   7.561  0.0539 -0.4316  0.2499
17907SOL    HW155162   4.478   7.217   7.488 -2.7852 -0.7842 -0.3675
17907SOL    HW255163   4.416   7.352   7.520  1.4124  0.9309  1.2642
17908SOL     OW55164   0.759   4.932   7.610 -0.1965  0.3588 -0.5608
17908SOL    HW155165   0.787   4.842   7.588 -0.8852  0.5668 -2.4814
17908SOL    HW255166   0.776   4.940   7.704  0.3546 -1.6110 -0.4448
17909SOL     OW55167   7.026   2.481  11.771 -0.1198  0.0310  0.2260
17909SOL    HW155168   6.958   2.439  11.824  0.7044  0.6521  1.8359
17909SOL    HW255169   7.061   2.550  11.827  2.4999 -0.8745 -0.1585
17910SOL     OW55170   3.972   1.964  10.722 -0.2396  0.1709  0.1919
17910SOL    HW155171   3.984   1.941  10.629  2.0153  0.7775  0.2830
17910SOL    HW255172   3.926   1.888  10.759  1.1568 -1.2690 -0.8961
17911SOL     OW55173   3.145   2.093   9.811 -0.6682  0.2722  0.2808
17911SOL    HW155174   3.117   2.064   9.898  0.0121  3.3304  1.6462
17911SOL    HW255175   3.158   2.187   9.820 -0.9125  0.7751 -3.2822
17912SOL     OW55176   0.599   3.186   1.763 -0.1690 -0.3567 -0.4743
17912SOL    HW155177   0.635   3.162   1.848 -0.0756 -0.8575 -0.6560
17912SOL    HW255178   0.505   3.169   1.771 -0.2225 -0.0068 -0.3355
17913SOL     OW55179   7.096   4.445   5.925  0.1645  0.0706 -0.1028
17913SOL    HW155180   7.094   4.399   5.842 -0.6013  0.2341 -0.1811
17913SOL    HW255181   7.026   4.405   5.976  0.5899  0.0091  0.4488
17914SOL     OW55182   2.937   2.426  11.635 -0.0173 -0.2031  0.2053
17914SOL    HW155183   2.933   2.393  11.725  1.5156  0.6414  0.6109
17914SOL    HW255184   2.972   2.515  11.644 -0.7878  0.2610 -1.1517
17915SOL     OW55185   0.594   3.531   4.033 -0.2975  0.7433  0.0128
17915SOL    HW155186   0.592   3.440   4.061  0.3771  0.4177 -0.9421
17915SOL    HW255187   0.664   3.571   4.086 -0.7738  0.7912  0.6237
17916SOL     OW55188   5.980   6.356   1.987 -0.0859 -0.2251 -0.5489
17916SOL    HW155189   5.917   6.420   2.019  0.1896  0.7166 -1.7755
17916SOL    HW255190   5.959   6.346   1.894 -0.6253 -2.5564 -0.2334
17917SOL     OW55191   1.679   1.609   0.827  0.3040 -0.3453  0.5592
17917SOL    HW155192   1.665   1.515   0.834  1.1915 -0.5324 -0.0915
17917SOL    HW255193   1.713   1.635   0.912 -2.7275 -0.0603  1.8285
17918SOL     OW55194   0.327   4.195   6.954 -0.0717  0.6418 -0.2299
17918SOL    HW155195   0.380   4.137   7.007 -1.2389 -1.5694 -1.3420
17918SOL    HW255196   0.390   4.237   6.895  0.7640  0.2759  0.3781
17919SOL     OW55197   5.971   3.442   7.736 -0.0429 -0.2889 -0.9773
17919SOL    HW155198   5.887   3.403   7.759  0.6117 -1.1479  0.1004
17919SOL    HW255199   5.949   3.519   7.684 -1.5327  0.0801  0.1221
17920SOL     OW55200   2.236   7.918   9.378 -0.0769 -0.2557 -0.0822
17920SOL    HW155201   2.329   7.897   9.367  0.2075  0.4321  0.9207
17920SOL    HW255202   2.222   7.992   9.320  0.8869  1.9236  2.2889
17921SOL     OW55203   3.117   1.379   3.728  0.1945 -0.1014 -1.1440
17921SOL    HW155204   3.171   1.417   3.659  1.6394  0.1019  0.0335
17921SOL    HW255205   3.046   1.441   3.741 -0.7694 -0.7047 -3.2008
17922SOL     OW55206   6.823   7.633   7.799 -0.4524  0.2481 -0.2233
17922SOL    HW155207   6.883   7.708   7.802 -0.5361  0.4244 -2.0385
17922SOL    HW255208   6.853   7.576   7.869  0.9695  0.9878 -0.1889
17923SOL     OW55209   6.255   3.065   8.468 -0.9411  0.0346 -0.4716
17923SOL    HW155210   6.189   3.003   8.500  0.1460 -0.1770  1.5207
17923SOL    HW255211   6.332   3.011   8.450 -0.7751  0.4907 -1.1873
17924SOL     OW55212   1.632   6.771   9.784  0.1200 -0.2292 -0.8282
17924SOL    HW155213   1.598   6.688   9.749 -1.6692  0.5280 -0.9969
17924SOL    HW255214   1.589   6.780   9.869  3.0125 -1.1347  0.8579
17925SOL     OW55215   0.149   2.306   4.782  0.2378  0.1334 -0.0744
17925SOL    HW155216   0.074   2.354   4.818  1.6714  0.9998  1.9772
17925SOL    HW255217   0.121   2.214   4.783 -0.0444  0.1376  2.9804
17926SOL     OW55218   5.961   3.126   7.770  0.1286 -0.0215  0.3227
17926SOL    HW155219   5.884   3.082   7.808 -0.7124  0.1617 -1.0975
17926SOL    HW255220   5.927   3.169   7.692  1.6923  0.0987 -0.3148
17927SOL     OW55221   7.728   2.199   8.464 -0.2275 -0.5576 -0.1864
17927SOL    HW155222   7.647   2.160   8.432 -0.9997 -0.9929  2.1240
17927SOL    HW255223   7.729   2.287   8.426 -0.6524 -1.2776 -1.9698
17928SOL     OW55224   6.402   4.526   3.982  0.1412  0.0928  0.0388
17928SOL    HW155225   6.458   4.455   4.015  0.4876 -0.6451 -2.0201
17928SOL    HW255226   6.412   4.596   4.047 -1.3228 -2.1707  2.9322
17929SOL     OW55227   3.234   6.900   3.098 -0.1180  0.3449  0.1089
17929SOL    HW155228   3.232   6.807   3.074 -0.9819  0.7267 -1.4288
17929SOL    HW255229   3.327   6.920   3.108  0.0357 -1.1233  2.4841
17930SOL     OW55230   3.010   3.831   2.410  0.7526 -0.4751  0.0539
17930SOL    HW155231   3.042   3.814   2.498  0.3310  1.6185  0.6756
17930SOL    HW255232   3.063   3.905   2.378 -0.2549 -0.0583 -0.7379
17931SOL     OW55233   3.481   2.328   4.812  0.3662 -0.4447 -0.3091
17931SOL    HW155234   3.558   2.382   4.834  1.0799 -0.5031 -2.4888
17931SOL    HW255235   3.416   2.391   4.782 -0.0602 -0.5130  0.4361
17932SOL     OW55236   7.880   3.792   9.001  0.3576 -0.2868 -0.7749
17932SOL    HW155237   7.895   3.857   8.932 -1.1920  0.9300 -0.0305
17932SOL    HW255238   7.855   3.843   9.078 -0.2749 -1.7407  0.0373
17933SOL     OW55239   3.029   0.366   8.233  0.2773 -0.2937  0.6247
17933SOL    HW155240   2.969   0.291   8.233 -1.4865  1.0377  0.9407
17933SOL    HW255241   3.007   0.413   8.314  0.2128  1.3856 -0.3180
17934SOL     OW55242   4.872   2.357  10.739  0.5187 -0.0208  0.1945
17934SOL    HW155243   4.833   2.401  10.664 -0.6256  2.2150  1.9632
17934SOL    HW255244   4.796   2.329  10.791  1.2674 -0.0620  1.2931
17935SOL     OW55245   1.691   0.198   5.237 -0.1607 -0.1195  0.3083
17935SOL    HW155246   1.771   0.226   5.194 -0.4424  1.7715  0.8840
17935SOL    HW255247   1.663   0.120   5.190  0.6719  0.6379 -1.5158
17936SOL     OW55248   6.901   2.858   0.303 -0.3475  0.1256  0.3833
17936SOL    HW155249   6.981   2.821   0.342  0.1147  0.8760  0.1738
17936SOL    HW255250   6.869   2.920   0.369 -0.7516 -0.1573  0.4571
17937SOL     OW55251   0.822   7.520   4.332 -0.2060  0.1413  0.4680
17937SOL    HW155252   0.740   7.569   4.321 -1.2063 -1.5841 -0.1393
17937SOL    HW255253   0.865   7.525   4.247  0.3912  1.1185  0.8110
17938SOL     OW55254   3.879   0.734   4.330  0.3556  0.7147 -0.9632
17938SOL    HW155255   3.873   0.703   4.239  0.3205 -1.4874 -0.2730
17938SOL    HW255256   3.958   0.787   4.332  0.5782  0.4621 -2.1986
17939SOL     OW55257   7.127   5.652   5.337  0.4492  0.3492  0.2528
17939SOL    HW155258   7.099   5.589   5.403 -1.6939  1.4273  0.4484
17939SOL    HW255259   7.123   5.737   5.380  0.4195  0.9288 -0.8433
17940SOL     OW55260   5.690   3.400   6.545  0.2853  0.4703  0.2837
17940SOL    HW155261   5.687   3.375   6.452 -0.9074  0.6909  0.2533
17940SOL    HW255262   5.620   3.464   6.555 -0.3080 -0.3620  1.5782
17941SOL     OW55263   3.385   2.716   9.545 -0.1452 -0.2494  0.2736
17941SOL    HW155264   3.309   2.770   9.524  0.5498  0.5710 -0.2082
17941SOL    HW255265   3.407   2.740   9.635 -1.4305 -1.6990  1.0026
17942SOL     OW55266   2.514   2.642  10.129 -0.1956 -0.0189  0.1147
17942SOL    HW155267   2.588   2.700  10.147  0.1790 -1.0617  2.1802
17942SOL    HW255268   2.489   2.608  10.214 -2.1891 -0.7710 -0.7259
17943SOL     OW55269   2.035   5.269  11.800 -0.5247 -0.2381  0.7672
17943SOL    HW155270   1.977   5.194  11.786  0.9161 -1.0850 -1.0261
17943SOL    HW255271   2.122   5.237  11.777  0.1240  1.9704 -0.1332
17944SOL     OW55272   1.175   7.568   2.999 -0.3275 -0.1300  0.6419
17944SOL    HW155273   1.105   7.627   2.973 -1.1106 -1.0472  0.6161
17944SOL    HW255274   1.186   7.508   2.925 -0.2911 -0.6869  1.0898
17945SOL     OW55275   3.827   0.639   9.531 -0.1085 -0.0723  0.1912
17945SOL    HW155276   3.853   0.717   9.580  2.0602  0.6087 -1.8414
17945SOL    HW255277   3.889   0.572   9.557 -0.5283 -0.4512  0.2297
17946SOL     OW55278   2.094   4.775   8.318  0.4488 -0.1023  0.3114
17946SOL    HW155279   2.138   4.710   8.262 -1.8950  0.0330 -1.8619
17946SOL    HW255280   2.063   4.842   8.257 -0.2249  1.2907  2.0995
17947SOL     OW55281   2.192   4.690   2.031 -0.6556 -0.0611 -0.3638
17947SOL    HW155282   2.256   4.671   2.100  0.6864  0.8059 -1.3065
17947SOL    HW255283   2.147   4.768   2.060 -0.6286 -0.1406 -0.1082
17948SOL     OW55284   6.888   2.548   7.203 -0.6422 -0.3511 -0.0299
17948SOL    HW155285   6.881   2.458   7.235 -0.6306  0.0582  1.1648
17948SOL    HW255286   6.974   2.577   7.231  0.1458 -0.5475 -2.0384
17949SOL     OW55287   1.230   4.858   6.933 -0.8382  0.2089  0.2573
17949SOL    HW155288   1.211   4.949   6.957 -1.1397 -0.4638  2.8507
17949SOL    HW255289   1.169   4.806   6.986  0.5514 -1.5596  0.2151
17950SOL     OW55290   4.268   3.511   8.177  0.1599  0.4077 -0.1152
17950SOL    HW155291   4.231   3.595   8.204 -2.4509 -0.5294 -0.4908
17950SOL    HW255292   4.297   3.470   8.258 -0.3112  0.8792  0.2955
17951SOL     OW55293   6.237   4.339   0.567 -0.4588  0.2687 -0.3729
17951SOL    HW155294   6.269   4.318   0.655  0.4714  1.1750 -0.4802
17951SOL    HW255295   6.142   4.335   0.575 -0.3764 -0.7473  0.3962
17952SOL     OW55296   2.604   6.934  10.435 -0.2384  0.5204 -0.6159
17952SOL    HW155297   2.515   6.968  10.437 -0.2385  0.6028 -1.6116
17952SOL    HW255298   2.598   6.847  10.474 -0.3253  1.4153  1.5003
17953SOL     OW55299   0.220   3.865   1.673  0.4883 -0.4638  0.4348
17953SOL    HW155300   0.254   3.793   1.725 -0.1889 -0.5088  0.8318
17953SOL    HW255301   0.182   3.925   1.738 -0.3719 -0.5234 -0.0015
17954SOL     OW55302   6.536   0.561   2.692 -0.2718 -0.3437 -0.7046
17954SOL    HW155303   6.534   0.558   2.596 -4.0870 -1.0684 -0.7391
17954SOL    HW255304   6.533   0.470   2.719 -2.3423 -0.1112  0.0054
17955SOL     OW55305   7.063   6.522  10.389  0.0706  0.2224  0.3712
17955SOL    HW155306   7.076   6.570  10.307 -0.8622  0.2600  0.2331
17955SOL    HW255307   6.975   6.548  10.418 -0.5565 -1.5535  0.1690
17956SOL     OW55308   0.228   6.231   2.640 -0.7116 -0.1692 -0.2092
17956SOL    HW155309   0.176   6.152   2.654  0.8475 -1.0398  0.9322
17956SOL    HW255310   0.178   6.300   2.682 -2.4433 -0.3759 -1.8239
17957SOL     OW55311   4.695   1.610   7.821 -0.4105 -0.6755  0.0728
17957SOL    HW155312   4.634   1.669   7.776 -0.0080  0.5837  1.1432
17957SOL    HW255313   4.772   1.610   7.765 -1.0780 -1.6812 -0.8950
17958SOL     OW55314   5.333   3.839   3.924  0.5644 -0.1569  0.9484
17958SOL    HW155315   5.295   3.762   3.967 -0.3138 -0.7308 -0.7616
17958SOL    HW255316   5.279   3.912   3.954 -0.7228 -0.7001  0.0300
17959SOL     OW55317   2.049   2.922   5.025 -0.1239 -0.2202  0.2507
17959SOL    HW155318   2.069   2.843   5.075  0.5204 -0.7705 -0.8359
17959SOL    HW255319   1.955   2.916   5.008 -0.0761 -0.7623  0.1564
17960SOL     OW55320   2.072   3.873   7.447  0.4347 -0.4029 -0.1626
17960SOL    HW155321   2.141   3.873   7.514 -0.3641  3.8859  0.9782
17960SOL    HW255322   1.991   3.867   7.496 -0.1348  1.7414 -0.7595
17961SOL     OW55323   2.086   3.243   8.213  0.4149  0.0272  0.3632
17961SOL    HW155324   2.100   3.159   8.170  2.4232  1.0753 -1.1561
17961SOL    HW255325   2.073   3.220   8.305 -0.6753 -2.0248 -0.2269
17962SOL     OW55326   3.087   7.946   8.891  0.7705  0.1325 -0.1531
17962SOL    HW155327   3.167   7.896   8.907  0.6343 -0.2503 -0.6259
17962SOL    HW255328   3.101   7.987   8.806  1.1196  1.3992  0.4866
17963SOL     OW55329   7.534   0.056   8.845  0.5298  0.6536  0.4408
17963SOL    HW155330   7.443   0.035   8.867  0.4932 -0.3594 -0.6163
17963SOL    HW255331   7.586  -0.005   8.898  0.5996  0.9798  0.7591
17964SOL     OW55332   3.550   4.175   7.211  0.0560 -0.4826  0.9942
17964SOL    HW155333   3.559   4.172   7.116 -2.5893 -1.0718  0.6862
17964SOL    HW255334   3.578   4.264   7.235 -0.0418 -0.0398 -0.4366
17965SOL     OW55335   3.790   5.988   8.761 -0.1501  0.4474 -0.3150
17965SOL    HW155336   3.879   5.978   8.728 -0.0905  2.1640 -0.7859
17965SOL    HW255337   3.734   5.978   8.684 -0.2832  0.4568 -0.2201
17966SOL     OW55338   4.554   3.475  11.927 -0.5005  0.1874 -0.3723
17966SOL    HW155339   4.500   3.432  11.994  0.6586  0.0318  0.4894
17966SOL    HW255340   4.497   3.541  11.889 -1.2713  0.0906  0.5781
17967SOL     OW55341   3.506   1.270   5.044 -0.0691  0.2684 -0.0204
17967SOL    HW155342   3.519   1.296   5.136 -0.6116  1.0249 -0.1469
17967SOL    HW255343   3.462   1.186   5.049 -0.9466  0.7379  0.4351
17968SOL     OW55344   5.537   0.136   4.412 -0.4187  0.7323  0.2214
17968SOL    HW155345   5.617   0.094   4.445 -1.6077 -0.0332  2.2888
17968SOL    HW255346   5.561   0.229   4.404  1.1693  0.2796 -0.9502
17969SOL     OW55347   1.864   0.509   6.753  0.3367 -0.0968  0.5654
17969SOL    HW155348   1.937   0.448   6.763  0.8365  0.3607 -0.1843
17969SOL    HW255349   1.788   0.453   6.737  0.9159 -0.5112 -0.8754
17970SOL     OW55350   6.319   0.419   3.152 -0.0039  0.2421 -0.1654
17970SOL    HW155351   6.336   0.345   3.094  0.0508  0.3666 -0.3068
17970SOL    HW255352   6.295   0.490   3.094 -2.1349 -0.2170  0.0745
17971SOL     OW55353   1.346   6.474   3.708  0.2058  0.0403  0.6794
17971SOL    HW155354   1.401   6.466   3.786  0.7280  2.2654  0.6112
17971SOL    HW255355   1.394   6.534   3.651 -1.4714  0.7024 -0.1138
17972SOL     OW55356   4.357   5.239   3.484  0.3727 -0.0950  0.0815
17972SOL    HW155357   4.450   5.249   3.462  1.2013 -4.6643  0.3773
17972SOL    HW255358   4.358   5.191   3.567 -2.3892  1.7795  1.3386
17973SOL     OW55359   5.453   4.244   6.623 -0.0881 -0.1549 -0.9206
17973SOL    HW155360   5.409   4.329   6.625  0.6243  0.2528 -1.7675
17973SOL    HW255361   5.388   4.183   6.588 -0.3567  0.1855 -1.0123
17974SOL     OW55362   7.221   5.247   5.185 -0.4041  0.5805  0.5571
17974SOL    HW155363   7.210   5.312   5.115 -1.1353 -0.0649  0.0620
17974SOL    HW255364   7.268   5.294   5.254 -0.3924  1.4615 -0.0372
17975SOL     OW55365   5.579   7.484   5.032 -0.4086  0.7248 -0.1899
17975SOL    HW155366   5.619   7.405   5.068 -1.5684  0.6782  1.0900
17975SOL    HW255367   5.493   7.455   5.002  0.6937  0.6217 -3.7212
17976SOL     OW55368   2.903   1.813   3.866 -0.3726 -0.5168  0.3617
17976SOL    HW155369   2.921   1.840   3.955 -1.4926 -1.4403  0.8995
17976SOL    HW255370   2.819   1.767   3.871  0.6177 -2.5892 -0.7440
17977SOL     OW55371   4.349   0.090  11.007 -0.1022 -0.0414 -0.5052
17977SOL    HW155372   4.375   0.145  10.933  0.6731 -1.6538 -1.4860
17977SOL    HW255373   4.432   0.060  11.045 -0.4397 -2.4117 -1.4785
17978SOL     OW55374   2.295   5.967  10.710  0.1680 -0.4388 -0.2835
17978SOL    HW155375   2.376   5.916  10.710  1.1788  1.0768 -1.1435
17978SOL    HW255376   2.305   6.026  10.785  0.4737  0.6444 -1.1666
17979SOL     OW55377   1.531   3.039  10.194  0.4001 -0.0127 -0.4434
17979SOL    HW155378   1.564   3.121  10.231  0.1917 -0.0128 -0.2546
17979SOL    HW255379   1.501   3.063  10.106  0.5537  0.0632 -0.4768
17980SOL     OW55380   3.715   3.833  10.770 -0.4719  0.2772  0.2135
17980SOL    HW155381   3.804   3.807  10.796 -0.2284  1.1721  0.3219
17980SOL    HW255382   3.713   3.821  10.675 -0.5538 -0.6573  0.3267
17981SOL     OW55383   4.943   1.217  10.205 -0.7234 -0.2880 -0.4010
17981SOL    HW155384   4.958   1.291  10.146 -1.1223 -0.2526 -0.4600
17981SOL    HW255385   5.026   1.168  10.205 -0.0456  0.8014  0.5535
17982SOL     OW55386   4.589   4.091  10.006 -0.4677 -0.1557 -0.0650
17982SOL    HW155387   4.494   4.088  10.006 -0.5013  0.5053 -0.9132
17982SOL    HW255388   4.614   4.067   9.916  0.2334 -1.7119  0.5078
17983SOL     OW55389   5.676   2.084   8.032  0.1736  0.1563  0.3543
17983SOL    HW155390   5.701   1.993   8.048 -2.1904 -0.4003  1.2360
17983SOL    HW255391   5.668   2.123   8.119 -0.8943  0.5815  0.0890
17984SOL     OW55392   6.864   1.046   2.374 -0.0096  0.1061 -0.5602
17984SOL    HW155393   6.865   1.102   2.296 -0.0569 -0.1581 -0.7542
17984SOL    HW255394   6.845   1.105   2.446 -3.2276 -0.0767 -1.1086
17985SOL     OW55395   1.493   6.449   3.936  0.2376  0.1594  0.1193
17985SOL    HW155396   1.585   6.425   3.944 -0.1569 -1.8253 -0.6760
17985SOL    HW255397   1.448   6.393   4.000 -0.3731  1.6258  1.0223
17986SOL     OW55398   7.099   6.473   7.747  0.3222  0.3424  0.0301
17986SOL    HW155399   7.022   6.529   7.746 -0.3003 -0.4531  0.7338
17986SOL    HW255400   7.121   6.459   7.655  2.4017  4.1880 -0.2408
17987SOL     OW55401   5.455   6.439   7.889  0.7984  0.0543  0.2300
17987SOL    HW155402   5.382   6.451   7.949  0.5270 -0.2477 -0.0363
17987SOL    HW255403   5.448   6.512   7.827 -0.0738 -0.7107 -0.6001
17988SOL     OW55404   2.306   7.081   5.454  0.6557  0.1021  0.2998
17988SOL    HW155405   2.319   7.092   5.548  1.9012  0.3331  0.1208
17988SOL    HW255406   2.247   7.153   5.430  1.0556  0.5899  0.7545
17989SOL     OW55407   4.131   2.699   0.377  0.1569  0.2973  0.3035
17989SOL    HW155408   4.211   2.735   0.416 -0.3275 -0.1304  1.7567
17989SOL    HW255409   4.067   2.770   0.384 -0.4152 -0.3362  1.9229
17990SOL     OW55410   5.757   5.488   5.574  0.0313 -0.7193 -0.1353
17990SOL    HW155411   5.721   5.439   5.647 -0.6932  0.4451  0.3212
17990SOL    HW255412   5.684   5.497   5.512  0.1623 -0.2842 -0.2342
17991SOL     OW55413   2.289   3.945   1.544  0.5058  0.1776 -0.5510
17991SOL    HW155414   2.336   3.861   1.542  0.3286  0.0839 -0.7293
17991SOL    HW255415   2.243   3.949   1.461 -2.0741 -1.0353  0.6939
17992SOL     OW55416   5.801   4.383   7.940  0.1839  0.6716 -0.3629
17992SOL    HW155417   5.709   4.405   7.931  0.4133  1.4671 -0.9019
17992SOL    HW255418   5.802   4.291   7.969 -0.7655  0.7201 -0.1589
17993SOL     OW55419   3.429   1.919  11.647 -0.1004 -0.1795 -0.3894
17993SOL    HW155420   3.446   1.908  11.741  0.1404 -1.7212 -0.5971
17993SOL    HW255421   3.338   1.948  11.642  0.7610  3.2078  0.4621
17994SOL     OW55422   7.453   1.386   0.512 -0.4448  0.4327  0.4883
17994SOL    HW155423   7.375   1.341   0.478 -1.6809  2.5184  0.3678
17994SOL    HW255424   7.493   1.425   0.434 -0.3143  0.8535  0.7639
17995SOL     OW55425   1.787   1.365  10.515  0.4759 -0.0921 -0.0745
17995SOL    HW155426   1.765   1.425  10.586  0.3929  0.4798 -0.5816
17995SOL    HW255427   1.729   1.390  10.443  1.4658  0.1879 -0.7900
17996SOL     OW55428   5.564   3.653   2.025 -0.2120 -0.1566 -0.2888
17996SOL    HW155429   5.651   3.692   2.038 -0.1534 -0.5727  0.7526
17996SOL    HW255430   5.527   3.648   2.114 -0.2416 -2.3541 -0.3706
17997SOL     OW55431   4.507   6.533   0.865 -0.1757  0.6427 -0.2249
17997SOL    HW155432   4.469   6.620   0.851 -0.1867  0.7552  0.4582
17997SOL    HW255433   4.538   6.535   0.956  1.3426  0.5197 -0.7066
17998SOL     OW55434   1.991   1.827   1.120 -0.7988  0.4511  0.1061
17998SOL    HW155435   2.027   1.782   1.197  0.3652 -1.1524 -1.3172
17998SOL    HW255436   1.911   1.779   1.098  1.0054 -1.8017 -2.0639
17999SOL     OW55437   0.592   2.402   5.536 -0.2408 -0.4319  0.1867
17999SOL    HW155438   0.561   2.413   5.446  0.4074  1.4542  0.1355
17999SOL    HW255439   0.680   2.367   5.527 -0.4322 -0.8948  0.1156
18000SOL     OW55440   7.948   3.568   3.606  0.0775 -0.0518 -0.0884
18000SOL    HW155441   7.975   3.561   3.514 -0.8223  1.2240 -0.4673
18000SOL    HW255442   7.980   3.653   3.634  0.1880 -0.3575  0.7468
18001SOL     OW55443   2.346   3.751   5.396  0.1108 -0.5672  0.2484
18001SOL    HW155444   2.436   3.720   5.401 -0.3183 -2.0114 -0.3079
18001SOL    HW255445   2.309   3.705   5.321 -0.3557  2.0508 -1.2394
18002SOL     OW55446   1.130   6.889  11.494  0.2071  0.3556  0.0737
18002SOL    HW155447   1.139   6.835  11.573  0.4781 -0.5858 -0.5823
18002SOL    HW255448   1.213   6.879  11.448 -1.6123 -3.4724 -2.9814
18003SOL     OW55449   1.097   2.693   2.831 -0.0982 -0.6491 -0.3479
18003SOL    HW155450   1.041   2.634   2.882 -0.7579 -1.6544 -2.1180
18003SOL    HW255451   1.180   2.646   2.823  0.5621  0.2055  1.0572
18004SOL     OW55452   7.422   5.226  10.003 -0.1649 -0.1413  0.0437
18004SOL    HW155453   7.501   5.261   9.961  1.4021 -0.7609  2.2404
18004SOL    HW255454   7.349   5.265   9.956  1.3847 -0.8986 -3.2665
18005SOL     OW55455   7.576   3.406   6.415  0.3083 -0.4027 -0.2670
18005SOL    HW155456   7.665   3.418   6.382  0.2408  0.2188 -0.2386
18005SOL    HW255457   7.540   3.495   6.421 -0.9135 -0.7423 -1.8998
18006SOL     OW55458   7.897   6.842   0.553 -0.6329  0.1136  0.5519
18006SOL    HW155459   7.884   6.937   0.548  1.1077  0.3220 -1.4228
18006SOL    HW255460   7.940   6.829   0.638 -0.7025  1.1226  0.7602
18007SOL     OW55461   1.143   0.427   6.003 -0.2546 -0.9112 -0.5154
18007SOL    HW155462   1.099   0.509   6.023 -1.5533 -1.4450 -1.0955
18007SOL    HW255463   1.162   0.388   6.089 -2.0162 -1.2270 -0.2292
18008SOL     OW55464   0.059   2.380   0.637 -0.4075  0.2146 -0.2751
18008SOL    HW155465   0.076   2.474   0.634  1.0945 -0.0045  0.5051
18008SOL    HW255466   0.103   2.349   0.716 -0.3806 -1.2443 -0.8167
18009SOL     OW55467   3.157   1.769   8.701 -0.2104 -0.3130  0.0077
18009SOL    HW155468   3.132   1.848   8.750  0.9509  0.5106 -0.6761
18009SOL    HW255469   3.091   1.704   8.725 -1.9906  1.2430 -0.4348
18010SOL     OW55470   3.717   4.636   0.580 -0.2471  0.1423 -0.0271
18010SOL    HW155471   3.717   4.592   0.665 -0.8730 -0.3856 -0.2929
18010SOL    HW255472   3.676   4.574   0.521 -2.1684  1.4586 -0.1884
18011SOL     OW55473   0.929   0.423   1.647 -0.4572 -0.2257 -0.1048
18011SOL    HW155474   0.962   0.335   1.665 -1.8079 -0.7856 -0.2864
18011SOL    HW255475   0.857   0.435   1.709 -1.5330 -0.0024 -1.3709
18012SOL     OW55476   2.294   2.016   4.136  0.2391 -0.0106 -0.6196
18012SOL    HW155477   2.278   1.923   4.117  1.3688 -0.4647  0.4502
18012SOL    HW255478   2.223   2.062   4.092  0.2272 -1.2984 -2.0503
18013SOL     OW55479   2.735   1.594   9.150  0.1763  0.4740  0.0142
18013SOL    HW155480   2.653   1.565   9.108  0.1540 -0.4086  0.6339
18013SOL    HW255481   2.803   1.544   9.104  0.4393  1.5469 -0.8174
18014SOL     OW55482   1.452   6.866   8.422 -0.0567  0.1331  0.5189
18014SOL    HW155483   1.416   6.841   8.507 -0.8265  0.8443  0.4060
18014SOL    HW255484   1.391   6.829   8.358  1.0046 -1.1908  0.2247
18015SOL     OW55485   3.367   4.177   2.733 -0.0321 -0.2383 -0.2327
18015SOL    HW155486   3.427   4.221   2.793  0.5301  0.1180 -1.0383
18015SOL    HW255487   3.389   4.084   2.742  0.6066 -0.1192 -0.4651
18016SOL     OW55488   7.257   4.266  12.408  0.0664  0.3867  0.6577
18016SOL    HW155489   7.198   4.333  12.442  1.0065  0.7045  1.7297
18016SOL    HW255490   7.201   4.190  12.393 -0.5119  0.3998  2.4611
18017SOL     OW55491   7.210   6.714   2.594  0.3773  0.3898 -0.2588
18017SOL    HW155492   7.261   6.661   2.656  2.3659  0.1263 -2.0371
18017SOL    HW255493   7.245   6.802   2.603 -0.1007  0.5833 -0.2460
18018SOL     OW55494   4.839   0.546   2.448  0.1604 -0.0882 -0.0831
18018SOL    HW155495   4.832   0.635   2.414  0.0257 -1.2004 -3.3595
18018SOL    HW255496   4.756   0.530   2.492 -0.9713  0.5720 -1.8644
18019SOL     OW55497   0.602   1.548  10.351 -0.0192 -0.1963  0.2965
18019SOL    HW155498   0.528   1.607  10.365 -1.7477 -2.2532  0.2819
18019SOL    HW255499   0.647   1.544  10.435 -0.5440  0.2489  0.5998
18020SOL     OW55500   4.977   5.788   0.640 -0.3975  0.3040  0.3990
18020SOL    HW155501   4.978   5.880   0.664  0.6421 -0.0110  1.6982
18020SOL    HW255502   4.960   5.742   0.723 -0.1855 -0.6935 -0.0948
18021SOL     OW55503   7.208   2.998   8.789  0.5471 -0.0507  0.5946
18021SOL    HW155504   7.282   2.944   8.816  0.4440 -0.9167 -0.7641
18021SOL    HW255505   7.208   2.993   8.693 -1.6411 -0.5984  0.5597
18022SOL     OW55506   0.147   4.930  10.748 -0.7651  0.0210  0.1601
18022SOL    HW155507   0.112   4.841  10.741  0.5076 -0.5143  0.2997
18022SOL    HW255508   0.163   4.957  10.658 -3.3659  1.0756 -0.0676
18023SOL     OW55509   2.275   7.201   8.829 -0.5819  0.3155 -0.6345
18023SOL    HW155510   2.208   7.133   8.825  0.6380 -1.0994  1.0470
18023SOL    HW255511   2.341   7.175   8.765  1.3703 -1.9502  2.0543
18024SOL     OW55512   7.555   0.619   2.936 -0.1421  0.0256 -0.5013
18024SOL    HW155513   7.650   0.627   2.922  0.0710  0.8943  1.1315
18024SOL    HW255514   7.545   0.539   2.987 -0.3080 -0.1315 -0.7778
18025SOL     OW55515   7.496   7.580   2.374 -0.3755 -0.6147  0.1978
18025SOL    HW155516   7.537   7.633   2.443  0.5919 -0.2429 -0.6286
18025SOL    HW255517   7.549   7.597   2.296 -0.8794 -1.7416 -0.4247
18026SOL     OW55518   3.552   1.306   7.049 -0.0798 -0.0922  0.0596
18026SOL    HW155519   3.611   1.352   7.108  2.3428 -1.8039 -0.8831
18026SOL    HW255520   3.486   1.267   7.107 -0.2870  1.7753  1.1471
18027SOL     OW55521   4.562   1.517   6.062  0.5613  0.4337  0.4232
18027SOL    HW155522   4.593   1.547   6.147 -0.1200  0.8375  0.5375
18027SOL    HW255523   4.487   1.461   6.081 -0.8871  2.1267  0.0498
18028SOL     OW55524   1.232   7.519  10.588 -0.3507  0.0395  0.1459
18028SOL    HW155525   1.214   7.596  10.643 -1.8805 -0.2049  0.0405
18028SOL    HW255526   1.267   7.454  10.649  1.1106  0.8492  0.2083
18029SOL     OW55527   2.596   2.613   5.678  0.4510  0.2266 -0.5321
18029SOL    HW155528   2.590   2.601   5.773 -0.8297 -0.0240 -0.6285
18029SOL    HW255529   2.505   2.614   5.648  0.8572 -0.9315 -1.9077
18030SOL     OW55530   1.631   6.699  10.877  0.4178 -0.3005 -0.1796
18030SOL    HW155531   1.669   6.622  10.834  1.5383  0.6951 -1.0616
18030SOL    HW255532   1.609   6.758  10.805 -1.4827 -0.2329  0.4158
18031SOL     OW55533   3.512   1.939   0.138 -0.2313  0.2872 -0.3361
18031SOL    HW155534   3.535   2.010   0.078  0.3847 -1.6594 -2.5482
18031SOL    HW255535   3.596   1.908   0.173 -0.3389 -0.3567 -0.6259
18032SOL     OW55536   5.952   5.738   1.680 -0.0450  0.3574 -0.5009
18032SOL    HW155537   5.942   5.717   1.773 -0.2240 -0.4613 -0.6937
18032SOL    HW255538   5.870   5.707   1.639  0.4879 -0.3287 -1.0904
18033SOL     OW55539   0.015   1.529   3.652 -0.2802 -0.4825  0.4908
18033SOL    HW155540   0.079   1.512   3.582 -0.5518  1.2975 -0.2421
18033SOL    HW255541   0.041   1.613   3.688 -1.8639 -0.0171  0.5809
18034SOL     OW55542   2.528   2.527   0.993 -0.2476  0.5148  0.3088
18034SOL    HW155543   2.582   2.520   1.072  0.4166 -0.6111 -0.2244
18034SOL    HW255544   2.438   2.521   1.025  0.0345 -1.9329  0.8229
18035SOL     OW55545   2.642   4.136   6.217  0.0256 -0.1130 -0.3940
18035SOL    HW155546   2.624   4.189   6.140  2.4491  0.7750 -0.4075
18035SOL    HW255547   2.650   4.047   6.183  1.9729  0.3875 -1.3695
18036SOL     OW55548   3.126   2.720   1.758  0.0595 -0.0070  0.6279
18036SOL    HW155549   3.174   2.787   1.807 -0.5074  0.6214  0.3391
18036SOL    HW255550   3.159   2.637   1.793  0.1620  0.4224  1.5946
18037SOL     OW55551   6.954   2.711  11.073 -0.1882 -0.8298  0.3350
18037SOL    HW155552   6.885   2.730  11.010  0.4491  2.1690  0.3980
18037SOL    HW255553   6.921   2.745  11.156  0.6462 -1.0287  0.7626
18038SOL     OW55554   7.447   3.595   7.314  0.4471  0.0115  0.0800
18038SOL    HW155555   7.474   3.660   7.249  1.3008  0.1464  0.5499
18038SOL    HW255556   7.515   3.599   7.381 -0.2913 -0.2936  0.8689
18039SOL     OW55557   1.730   5.049   3.064  0.6241 -0.2742  0.0483
18039SOL    HW155558   1.789   5.093   3.003 -0.0917  0.4685 -0.1243
18039SOL    HW255559   1.733   4.957   3.038  1.6842 -0.2416  0.0318
18040SOL     OW55560   6.255   2.684   5.263  0.3187  0.7479 -0.0620
18040SOL    HW155561   6.320   2.696   5.194  0.8869  0.9960  0.5037
18040SOL    HW255562   6.284   2.743   5.333 -0.0325  0.2197  0.5334
18041SOL     OW55563   7.176   3.979   6.214 -0.0481 -0.0868  0.0827
18041SOL    HW155564   7.223   3.954   6.135  3.3047 -0.3111  1.9609
18041SOL    HW255565   7.182   4.074   6.216  0.0486 -0.0952  0.1779
18042SOL     OW55566   3.841   1.744  10.874  0.0896 -0.0418 -0.0878
18042SOL    HW155567   3.754   1.707  10.858  0.8445 -2.0168  0.1338
18042SOL    HW255568   3.843   1.758  10.969  0.9280 -2.6093  0.3433
18043SOL     OW55569   4.708   1.309  10.967 -0.6715  0.7629  0.1093
18043SOL    HW155570   4.757   1.290  11.047  0.4342 -0.6066 -0.8152
18043SOL    HW255571   4.747   1.390  10.934 -0.0645  0.5127  0.1870
18044SOL     OW55572   1.551   1.839   3.591 -0.0142  0.5152 -0.4469
18044SOL    HW155573   1.480   1.856   3.652  0.0681 -0.3593 -0.0922
18044SOL    HW255574   1.524   1.882   3.510 -1.1360 -0.1253 -0.4332
18045SOL     OW55575   7.834   2.738  11.640 -0.2960  0.0802 -0.3678
18045SOL    HW155576   7.866   2.727  11.730  2.3240  2.9293 -0.7929
18045SOL    HW255577   7.739   2.730  11.648 -0.2037  0.6023  2.7506
18046SOL     OW55578   4.950   6.404   0.865  0.2049  0.4059  0.2147
18046SOL    HW155579   4.899   6.335   0.823  0.3067 -0.7930  1.9412
18046SOL    HW255580   4.898   6.483   0.854 -1.4675 -0.5508  0.8794
18047SOL     OW55581   0.196   5.446   0.525  0.0676 -0.3982  0.6367
18047SOL    HW155582   0.125   5.384   0.542 -0.1687 -0.1118  0.7100
18047SOL    HW255583   0.231   5.420   0.440  0.0768 -0.7344  0.7449
18048SOL     OW55584   2.772   6.913   9.648  0.4152  0.3666  0.1984
18048SOL    HW155585   2.825   6.991   9.665  0.3321  0.8932 -1.7283
18048SOL    HW255586   2.730   6.894   9.732 -1.9672  4.2090  0.0952
18049SOL     OW55587   4.284   1.673   7.673 -0.4192  0.0022 -0.1874
18049SOL    HW155588   4.210   1.729   7.650  0.8470  1.9555  0.2480
18049SOL    HW255589   4.272   1.653   7.766 -0.4835  0.1680 -0.1606
18050SOL     OW55590   3.718   4.897   9.309  0.1030  0.0071  0.0346
18050SOL    HW155591   3.699   4.850   9.228  0.9113 -1.7519  0.8013
18050SOL    HW255592   3.691   4.987   9.292 -2.0437 -0.8300 -1.3264
18051SOL     OW55593   7.827   7.978   8.218  0.0188 -0.8212  0.2862
18051SOL    HW155594   7.753   8.018   8.264 -0.0940 -1.3398  0.5664
18051SOL    HW255595   7.826   8.017   8.131 -0.6483 -0.9133  0.2537
18052SOL     OW55596   6.525   4.178  10.029 -0.1547 -0.2666 -0.3913
18052SOL    HW155597   6.495   4.202   9.941  0.6415  1.4109 -0.2383
18052SOL    HW255598   6.595   4.115  10.014  1.2780  1.4184 -1.0849
18053SOL     OW55599   4.671   1.838   9.792 -0.3068 -0.1817  0.8521
18053SOL    HW155600   4.726   1.823   9.715 -0.8001 -0.3676  0.5347
18053SOL    HW255601   4.712   1.913   9.836  0.3490 -0.4800  0.7628
18054SOL     OW55602   4.914   6.352   3.361  0.7660 -0.1347 -0.2633
18054SOL    HW155603   4.893   6.259   3.373 -0.9253  0.3023  0.4656
18054SOL    HW255604   4.923   6.386   3.450  0.4373  0.5836 -0.4972
18055SOL     OW55605   4.913   0.085   6.420 -0.3213  0.3716 -0.0149
18055SOL    HW155606   4.974   0.159   6.421 -1.8703  1.6989  1.2360
18055SOL    HW255607   4.832   0.119   6.457 -1.1192 -1.9600  0.6148
18056SOL     OW55608   0.517   4.057   4.161  0.0714  0.2638  0.2793
18056SOL    HW155609   0.438   4.004   4.150  0.4298 -1.0172  3.0808
18056SOL    HW255610   0.531   4.097   4.075 -3.3160  0.1668 -0.4505
18057SOL     OW55611   6.781   6.485  11.968 -0.2187 -0.0805  0.2098
18057SOL    HW155612   6.735   6.450  12.044 -0.9875 -0.6971 -0.5170
18057SOL    HW255613   6.822   6.409  11.928  1.3313  0.4324  0.7395
18058SOL     OW55614   5.296   5.412   3.842 -0.5515  0.4637  0.0722
18058SOL    HW155615   5.203   5.423   3.863 -0.7735 -0.8749 -0.0716
18058SOL    HW255616   5.299   5.329   3.793  0.5936  0.9891 -0.7838
18059SOL     OW55617   5.037   0.652  10.994 -0.1642 -0.8669 -0.5402
18059SOL    HW155618   5.104   0.609  11.048 -1.6710 -0.7812  1.4921
18059SOL    HW255619   5.069   0.742  10.984 -0.5105 -0.4948  1.4330
18060SOL     OW55620   6.375   4.247  10.918 -0.7130 -0.1660 -0.2834
18060SOL    HW155621   6.332   4.165  10.894  0.2253 -1.1573  1.2322
18060SOL    HW255622   6.469   4.226  10.914 -0.4588  0.9355 -0.2118
18061SOL     OW55623   5.465   2.964  10.325 -0.0407 -0.3076 -0.3000
18061SOL    HW155624   5.519   2.945  10.402  0.9733 -1.3792 -1.2316
18061SOL    HW255625   5.526   2.998  10.260 -1.1774  2.3151 -0.0862
18062SOL     OW55626   2.550   3.214   2.632 -0.0175 -0.1730  0.4840
18062SOL    HW155627   2.458   3.221   2.608 -0.2123 -2.5786  0.2707
18062SOL    HW255628   2.597   3.219   2.549 -0.3437 -3.3715 -0.0241
18063SOL     OW55629   6.254   5.960   2.042  0.6928  0.0041 -1.1896
18063SOL    HW155630   6.268   5.971   1.948  2.2143 -0.9729 -1.1000
18063SOL    HW255631   6.167   5.999   2.058 -0.3026 -1.2330 -3.2523
18064SOL     OW55632   1.658   2.575   9.110 -0.3295 -0.0613  0.1668
18064SOL    HW155633   1.604   2.651   9.088  0.3020  0.2839 -0.2295
18064SOL    HW255634   1.652   2.518   9.033 -0.7364 -0.3848  0.4311
18065SOL     OW55635   5.094   0.047  11.728  0.1255  0.2916 -0.3916
18065SOL    HW155636   5.170  -0.006  11.703  0.4883  0.0469  1.1431
18065SOL    HW255637   5.053  -0.002  11.799 -0.3895  1.3370  0.0532
18066SOL     OW55638   6.970   4.875  10.739  0.6791 -0.6190 -0.3238
18066SOL    HW155639   7.064   4.856  10.743  1.6728  3.3932 -0.2016
18066SOL    HW255640   6.948   4.903  10.828  0.1305  1.2590 -1.0187
18067SOL     OW55641   6.257   4.304   4.916 -0.0031 -0.4496 -0.3153
18067SOL    HW155642   6.312   4.301   4.994 -0.5629  0.5354  0.1362
18067SOL    HW255643   6.167   4.305   4.950 -0.2805 -0.9456 -1.0016
18068SOL     OW55644   7.884   3.097   1.574 -0.1954  1.0991 -0.6838
18068SOL    HW155645   7.896   3.159   1.502 -0.4740  0.3648 -1.3772
18068SOL    HW255646   7.809   3.044   1.547  1.9267 -1.6536 -1.6565
18069SOL     OW55647   6.297   5.861   0.928 -0.2525  0.1725  0.1760
18069SOL    HW155648   6.377   5.888   0.973 -0.2365  0.7296 -0.1691
18069SOL    HW255649   6.285   5.769   0.953  1.0104 -0.2122 -0.4855
18070SOL     OW55650   6.085   3.606   6.323 -0.2544 -0.3719 -0.5238
18070SOL    HW155651   6.001   3.607   6.371  0.1463 -1.3747  0.2396
18070SOL    HW255652   6.065   3.646   6.239 -1.5537 -0.7484 -0.4161
18071SOL     OW55653   3.903   3.203   7.399 -0.4252  0.0290 -0.5406
18071SOL    HW155654   3.998   3.195   7.392 -0.5289  0.0323 -3.0367
18071SOL    HW255655   3.882   3.168   7.485  1.7485 -0.8297 -0.2937
18072SOL     OW55656   7.415   0.467   7.755 -0.8562  0.0585 -0.3730
18072SOL    HW155657   7.438   0.555   7.726 -1.1198  0.3110  0.1758
18072SOL    HW255658   7.356   0.480   7.828 -0.0820 -0.5701  0.3855
18073SOL     OW55659   6.121   5.036   7.069  0.5312  0.2032 -0.2664
18073SOL    HW155660   6.214   5.054   7.057  0.3348  0.3644 -1.6933
18073SOL    HW255661   6.096   5.089   7.144  1.5507  0.2748  0.0406
18074SOL     OW55662   4.648   3.215   6.922 -0.5668  0.4864 -0.2151
18074SOL    HW155663   4.645   3.266   7.002  1.8980 -1.5088  1.3100
18074SOL    HW255664   4.630   3.125   6.949 -0.1734 -0.1772 -1.9805
18075SOL     OW55665   1.883   6.970   7.913 -0.0140  0.0313  0.1058
18075SOL    HW155666   1.873   6.948   8.006 -0.0358 -1.7211 -0.2828
18075SOL    HW255667   1.818   6.916   7.868 -0.7202  1.6322 -0.8653
18076SOL     OW55668   5.884   2.209   5.717  0.2822 -0.2298  0.4903
18076SOL    HW155669   5.850   2.286   5.763 -0.3837 -0.3263  0.1798
18076SOL    HW255670   5.805   2.166   5.683  0.8193  0.4484 -1.7345
18077SOL     OW55671   1.488   2.945   2.433  0.1192 -0.0182 -0.3147
18077SOL    HW155672   1.461   3.031   2.465 -0.9316 -0.8434  1.1606
18077SOL    HW255673   1.470   2.948   2.339  0.1652  1.3765 -0.3058
18078SOL     OW55674   1.407   2.642   2.984  0.5479 -0.0867 -0.4004
18078SOL    HW155675   1.384   2.593   2.905 -1.4975 -0.4093  0.3232
18078SOL    HW255676   1.498   2.668   2.970  0.8634 -1.7613 -2.0104
18079SOL     OW55677   5.517   6.272   0.787 -0.2122  0.0346 -0.4607
18079SOL    HW155678   5.483   6.305   0.870  1.5714 -0.7135  0.6244
18079SOL    HW255679   5.527   6.178   0.800  1.8416  0.1514 -0.8058
18080SOL     OW55680   2.557   7.078   9.336  0.0288 -0.6465 -0.1827
18080SOL    HW155681   2.510   7.039   9.262  0.6865 -0.0641 -0.9226
18080SOL    HW255682   2.544   7.015   9.408  1.1625 -2.3090 -1.3661
18081SOL     OW55683   7.888   4.891   3.349 -0.5794  0.0861 -0.1885
18081SOL    HW155684   7.892   4.887   3.444 -1.4253 -0.1266 -0.1493
18081SOL    HW255685   7.844   4.810   3.324  0.2622 -0.1956 -0.8118
18082SOL     OW55686   7.596   6.773   2.621  0.6658  0.2665 -0.3524
18082SOL    HW155687   7.518   6.721   2.637  0.4790 -0.0347 -2.0669
18082SOL    HW255688   7.648   6.722   2.559  2.9993 -0.2553  1.8443
18083SOL     OW55689   6.266   0.436  12.067 -0.0233 -0.3251 -0.5857
18083SOL    HW155690   6.334   0.377  12.034 -0.7039 -0.7517 -1.2541
18083SOL    HW255691   6.315   0.511  12.101  0.7974 -0.7373 -0.8107
18084SOL     OW55692   6.581   3.104   9.200 -0.3136 -0.2316 -0.3601
18084SOL    HW155693   6.489   3.128   9.197 -0.2414  0.1241  0.1530
18084SOL    HW255694   6.593   3.046   9.125 -1.0604 -0.6608 -0.1658
18085SOL     OW55695   3.596   2.823   0.709 -0.1739 -0.1198  0.6744
18085SOL    HW155696   3.601   2.839   0.803  2.1550 -0.3487  0.6332
18085SOL    HW255697   3.610   2.729   0.699  1.1196  0.1076  0.0514
18086SOL     OW55698   1.345   7.514   1.810  0.4046  0.3743 -0.3322
18086SOL    HW155699   1.412   7.547   1.749  1.0572 -1.9630 -0.9642
18086SOL    HW255700   1.262   7.545   1.773  0.9376  0.8465 -1.1632
18087SOL     OW55701   1.717   7.459   4.914 -0.1455  0.0388  0.2345
18087SOL    HW155702   1.810   7.463   4.892 -0.3647 -0.0653 -0.7265
18087SOL    HW255703   1.696   7.366   4.914 -0.4721  0.1111 -0.5073
18088SOL     OW55704   3.827   5.315   1.262  0.0038  0.4180 -0.2992
18088SOL    HW155705   3.871   5.244   1.309  0.1936  0.9663  0.3860
18088SOL    HW255706   3.807   5.379   1.331  0.4554  1.3331 -1.0130
18089SOL     OW55707   7.210   2.656   4.735 -0.2901  0.2558 -0.0279
18089SOL    HW155708   7.125   2.690   4.761 -1.2933 -2.2823  0.3603
18089SOL    HW255709   7.249   2.624   4.817 -0.6038 -1.8178 -0.6132
18090SOL     OW55710   1.216   4.042   2.960  0.6868  0.0497  0.1144
18090SOL    HW155711   1.130   4.084   2.973  1.3142  1.7137 -0.8009
18090SOL    HW255712   1.231   4.048   2.866  2.2303  0.6975  0.3766
18091SOL     OW55713   4.592   6.186  10.555 -0.6287  0.5082 -0.0375
18091SOL    HW155714   4.569   6.183  10.462 -1.7030 -1.1906  0.2315
18091SOL    HW255715   4.571   6.098  10.588  0.6892  0.7471  1.6006
18092SOL     OW55716   3.365   1.895  11.983  0.4086 -0.5230  0.0051
18092SOL    HW155717   3.394   1.890  12.074  1.4654 -1.6457 -0.3747
18092SOL    HW255718   3.350   1.804  11.957 -0.3231 -0.1843 -0.8231
18093SOL     OW55719   5.435   5.676   9.694  0.1504 -0.5211 -0.2227
18093SOL    HW155720   5.454   5.693   9.601 -1.0800 -3.0179 -1.0210
18093SOL    HW255721   5.402   5.759   9.727 -0.7319  0.0693 -2.4181
18094SOL     OW55722   1.717   7.337   4.366  0.6997 -0.1544  0.6359
18094SOL    HW155723   1.794   7.291   4.399  1.3090  0.1357 -0.3291
18094SOL    HW255724   1.685   7.282   4.294  1.2289  0.7281 -0.2977
18095SOL     OW55725   6.252   5.893  10.465 -0.3821 -0.1645 -0.3355
18095SOL    HW155726   6.163   5.874  10.494  0.2385  0.0722  1.8826
18095SOL    HW255727   6.293   5.807  10.457 -0.3150 -0.2023  0.3697
18096SOL     OW55728   0.266   6.253   4.311 -0.7934 -0.4429 -0.2092
18096SOL    HW155729   0.310   6.169   4.300 -0.7540 -0.2682 -1.6447
18096SOL    HW255730   0.331   6.308   4.355  0.6106 -0.1030 -2.5361
18097SOL     OW55731   5.130   1.025   9.012 -0.2789  0.1422 -0.4127
18097SOL    HW155732   5.055   0.966   9.027  0.5684 -0.8733 -0.0186
18097SOL    HW255733   5.091   1.112   9.007 -1.4853 -0.3568 -0.1503
18098SOL     OW55734   3.356   6.279  12.258  0.2908 -0.0930  0.9573
18098SOL    HW155735   3.399   6.197  12.284 -0.3499 -0.1162  1.9848
18098SOL    HW255736   3.284   6.252  12.202 -1.7487 -0.5378  3.6051
18099SOL     OW55737   1.565   7.301   6.463 -0.6834 -0.5808 -0.0868
18099SOL    HW155738   1.563   7.305   6.559 -2.4617  0.9987 -0.1082
18099SOL    HW255739   1.657   7.297   6.441 -0.1833 -0.0607  1.6978
18100SOL     OW55740   5.635   2.705   8.767 -0.0391  0.2931 -0.1164
18100SOL    HW155741   5.557   2.727   8.818  0.2156 -0.5558  0.6635
18100SOL    HW255742   5.622   2.749   8.683 -0.6344  1.4172  0.5509
18101SOL     OW55743   0.824   2.214   3.627 -0.4969 -0.3603 -0.5408
18101SOL    HW155744   0.829   2.294   3.574  0.9554 -0.9078 -1.3009
18101SOL    HW255745   0.817   2.244   3.717 -0.0639  0.6342 -0.8280
18102SOL     OW55746   6.440   7.382   1.002 -0.5173  0.1400 -0.2837
18102SOL    HW155747   6.454   7.290   1.025 -3.4127 -0.0617  1.1711
18102SOL    HW255748   6.485   7.431   1.071  0.2646 -0.1896 -0.5507
18103SOL     OW55749   6.511   7.765   9.895 -0.0777  0.4476 -0.0497
18103SOL    HW155750   6.514   7.674   9.923 -1.2522  0.1890 -0.6753
18103SOL    HW255751   6.419   7.789   9.904  0.4409  2.0216  1.4491
18104SOL     OW55752   5.087   2.706   7.199  0.0509  0.0481  0.2424
18104SOL    HW155753   5.047   2.651   7.267  1.1992 -2.4181 -0.9423
18104SOL    HW255754   5.049   2.674   7.117  0.1927  1.6055 -0.4675
18105SOL     OW55755   5.281   6.279   3.035  0.3666 -0.5130  0.6381
18105SOL    HW155756   5.287   6.367   2.999 -1.5892 -0.1947  0.9897
18105SOL    HW255757   5.248   6.291   3.124 -2.1024 -1.6426 -0.0326
18106SOL     OW55758   5.092   5.998   8.641  0.0593 -0.2585 -0.0721
18106SOL    HW155759   5.109   5.906   8.660 -0.3308 -0.2048  0.5596
18106SOL    HW255760   5.140   6.046   8.708 -3.7372 -0.1296  2.8968
18107SOL     OW55761   5.085   4.463   0.258 -0.4490  0.2025  0.0630
18107SOL    HW155762   5.150   4.473   0.327  0.9517 -1.9978 -0.8415
18107SOL    HW255763   5.133   4.482   0.177 -0.9390 -1.3125 -0.6139
18108SOL     OW55764   0.204   3.823   3.362  0.1862 -0.2849  0.2087
18108SOL    HW155765   0.141   3.856   3.427  0.6343  0.0357  0.4909
18108SOL    HW255766   0.167   3.849   3.278  0.0242  0.0499  0.3803
18109SOL     OW55767   1.958   3.864   1.325  0.0043  0.4558  0.3602
18109SOL    HW155768   1.950   3.779   1.368  0.9759  1.1149  1.9381
18109SOL    HW255769   1.869   3.898   1.320 -0.3828 -0.6196 -0.2481
18110SOL     OW55770   2.314   0.569   4.553  1.0326  0.0603 -0.2402
18110SOL    HW155771   2.311   0.504   4.622 -1.3449  0.9748  0.6098
18110SOL    HW255772   2.405   0.568   4.523  1.3281 -2.7656  0.5180
18111SOL     OW55773   7.886   7.828   8.457 -0.2148  0.6550 -0.0424
18111SOL    HW155774   7.929   7.745   8.438  0.9677  1.3714 -0.6206
18111SOL    HW255775   7.842   7.852   8.376 -0.5428  0.6029  0.1189
18112SOL     OW55776   3.216   1.780   7.918  0.0107  0.8895 -0.0518
18112SOL    HW155777   3.157   1.851   7.944 -0.0088  0.2071  1.9277
18112SOL    HW255778   3.235   1.733   8.000  0.3146 -1.1676 -1.2294
18113SOL     OW55779   1.587   3.763  10.271 -0.3755 -0.3897  0.1428
18113SOL    HW155780   1.510   3.728  10.314 -0.3095 -0.0726  0.5184
18113SOL    HW255781   1.659   3.746  10.332  0.4816 -3.6808 -1.5484
18114SOL     OW55782   7.908   3.806   6.407 -0.2039  0.5840 -0.0978
18114SOL    HW155783   7.997   3.805   6.373 -0.6752  0.5639 -1.3673
18114SOL    HW255784   7.900   3.722   6.453  0.3252  0.4397 -0.2543
18115SOL     OW55785   3.214   0.627   7.008 -0.6119  0.3611  0.0575
18115SOL    HW155786   3.277   0.668   7.068  0.0852  0.2790 -0.5994
18115SOL    HW255787   3.246   0.538   6.998 -0.7490  0.3649 -0.4112
18116SOL     OW55788   2.726   0.306   4.146  0.2807  0.3721  0.1204
18116SOL    HW155789   2.647   0.358   4.159 -0.2460 -0.2220 -0.6755
18116SOL    HW255790   2.746   0.314   4.053 -0.4680 -1.7539 -0.2698
18117SOL     OW55791   5.042   5.204  11.022 -0.3155  0.1042  0.5949
18117SOL    HW155792   5.137   5.208  11.011 -0.3964 -0.1367 -0.1997
18117SOL    HW255793   5.028   5.229  11.114  0.5725 -0.6596  0.9571
18118SOL     OW55794   3.120   6.253   3.149 -0.2988  0.5041 -0.0872
18118SOL    HW155795   3.195   6.225   3.202 -1.4195 -1.1342  0.6932
18118SOL    HW255796   3.159   6.280   3.066  1.1717 -0.2924  0.2998
18119SOL     OW55797   2.479   2.968  10.917  0.5133  0.4710  0.6106
18119SOL    HW155798   2.522   2.900  10.969  0.8446  0.8773  0.8767
18119SOL    HW255799   2.537   2.981  10.842  2.4345  2.9937  2.3311
18120SOL     OW55800   5.068   3.633  11.045 -0.3264 -0.0632  0.3253
18120SOL    HW155801   5.163   3.644  11.049 -0.5255  2.3044  0.0832
18120SOL    HW255802   5.051   3.554  11.096  1.7437 -0.4080  0.5666
18121SOL     OW55803   3.778   0.863   8.622 -0.4778  0.0482 -0.5524
18121SOL    HW155804   3.773   0.773   8.653 -3.6214  0.2158 -0.2104
18121SOL    HW255805   3.853   0.865   8.563  0.5366 -2.3938  0.5476
18122SOL     OW55806   1.756   0.268   3.286 -0.1455  0.2247  0.3089
18122SOL    HW155807   1.756   0.326   3.362 -1.9313  1.9028 -0.8739
18122SOL    HW255808   1.731   0.182   3.321 -0.5276  0.8733  1.6640
18123SOL     OW55809   2.824   3.423  10.548  0.1059 -0.5771 -0.2241
18123SOL    HW155810   2.823   3.431  10.453 -0.4307 -0.6099 -0.2215
18123SOL    HW255811   2.915   3.401  10.569  0.5588  0.8675 -0.5982
18124SOL     OW55812   7.415   1.633   5.776  0.7336  0.3230  0.3797
18124SOL    HW155813   7.404   1.611   5.868  0.1839  1.1718  0.5280
18124SOL    HW255814   7.479   1.570   5.743 -0.0114 -0.7835  1.0256
18125SOL     OW55815   1.821   6.018  10.294 -0.5578  0.1882 -0.0873
18125SOL    HW155816   1.825   6.080  10.367 -0.8972  0.3963 -0.2446
18125SOL    HW255817   1.765   6.061  10.229  1.5359  1.0634 -1.4587
18126SOL     OW55818   2.909   0.497  10.195  0.5569  0.4127 -0.6966
18126SOL    HW155819   2.847   0.471  10.127 -1.5113  0.9892  0.8379
18126SOL    HW255820   2.909   0.593  10.193  2.1278  0.4166 -1.2609
18127SOL     OW55821   1.606   7.761  12.356  0.0122 -0.1388  0.5985
18127SOL    HW155822   1.549   7.823  12.312  1.4328  0.5879 -0.3195
18127SOL    HW255823   1.660   7.815  12.414  3.7526  0.2462 -2.7615
18128SOL     OW55824   0.162   3.388  11.356 -0.1187 -0.2863 -0.2718
18128SOL    HW155825   0.105   3.332  11.304 -0.8791 -0.1356  0.3926
18128SOL    HW255826   0.106   3.458  11.388  0.3383 -0.3632  0.7330
18129SOL     OW55827   0.263   4.578   0.922 -0.6125 -0.2598 -0.0570
18129SOL    HW155828   0.262   4.525   0.843  1.3724 -0.2536 -0.1422
18129SOL    HW255829   0.339   4.546   0.971 -1.6733 -0.1262  1.7644
18130SOL     OW55830   0.905   4.754   6.480  0.3532  0.6509  0.6416
18130SOL    HW155831   0.947   4.832   6.444  0.3889  0.0898 -0.5828
18130SOL    HW255832   0.939   4.682   6.427 -0.6318 -0.0471  0.9335
18131SOL     OW55833   1.939   7.934   5.373  0.5172 -0.3509  0.1575
18131SOL    HW155834   1.945   8.001   5.441  1.9289 -0.0892 -0.1905
18131SOL    HW255835   1.846   7.914   5.368  0.0560  1.5220  0.3221
18132SOL     OW55836   2.965   5.347   5.923  0.0115  0.1356  0.1394
18132SOL    HW155837   2.907   5.379   5.853 -1.6209  1.4332  1.9787
18132SOL    HW255838   3.053   5.364   5.890 -0.7026  1.2817 -1.3568
18133SOL     OW55839   4.937   2.795   0.909 -0.1697 -0.6200  0.3225
18133SOL    HW155840   4.982   2.765   0.830 -0.8786 -1.6442  0.2825
18133SOL    HW255841   4.846   2.769   0.896 -0.8527  1.5422  0.3240
18134SOL     OW55842   4.857   1.362   6.702 -0.0568 -0.2196 -0.0537
18134SOL    HW155843   4.921   1.355   6.632 -0.1912  1.0230 -0.3155
18134SOL    HW255844   4.781   1.314   6.670  0.0555 -0.0667 -0.5539
18135SOL     OW55845   3.036   6.486   9.484 -0.2094 -0.4338  0.3516
18135SOL    HW155846   2.989   6.566   9.510  0.9935  0.1110  0.9610
18135SOL    HW255847   3.088   6.513   9.408  1.3232 -0.1971  1.4408
18136SOL     OW55848   6.876   3.152   4.185 -0.0684  0.1473  0.8718
18136SOL    HW155849   6.928   3.142   4.265 -1.5285 -1.3750  1.6905
18136SOL    HW255850   6.842   3.242   4.190  2.6252  1.3152  0.1449
18137SOL     OW55851   3.060   7.770   9.853  0.3454 -0.0774  0.4327
18137SOL    HW155852   3.005   7.844   9.827  0.1285 -0.3327  0.1660
18137SOL    HW255853   3.149   7.796   9.827 -0.0576 -1.0647 -2.2849
18138SOL     OW55854   0.278   5.351   1.266  0.0306 -0.2633 -0.2119
18138SOL    HW155855   0.263   5.340   1.173  1.8991  0.3807 -0.6418
18138SOL    HW255856   0.373   5.342   1.276 -0.2038 -1.2098  1.7658
18139SOL     OW55857   4.201   1.804   2.390 -0.3294 -0.0808 -0.4506
18139SOL    HW155858   4.236   1.825   2.477  0.6576 -1.1268 -0.5711
18139SOL    HW255859   4.137   1.873   2.373 -0.0281  0.5444  0.8036
18140SOL     OW55860   6.226   6.044   6.788  0.1925 -0.3136  0.0133
18140SOL    HW155861   6.183   5.999   6.861 -0.9798  0.5918 -0.0954
18140SOL    HW255862   6.319   6.043   6.811 -0.1318 -0.2633  1.4133
18141SOL     OW55863   2.287   6.394   3.934 -0.5162 -0.2785  0.2284
18141SOL    HW155864   2.297   6.386   4.029 -1.1937 -1.4087  0.2233
18141SOL    HW255865   2.296   6.305   3.901 -0.3240  0.0958 -0.7761
18142SOL     OW55866   4.387   6.400  11.959 -0.3157 -0.5299 -0.1513
18142SOL    HW155867   4.376   6.334  12.028 -0.1674 -1.7873 -1.2869
18142SOL    HW255868   4.300   6.440  11.951 -0.3182 -0.3104  0.8033
18143SOL     OW55869   4.895   7.543   1.213 -0.0775 -0.2373 -0.0625
18143SOL    HW155870   4.810   7.541   1.169 -0.1548 -0.5967  0.1033
18143SOL    HW255871   4.918   7.636   1.216 -0.2912 -0.1727 -0.4377
18144SOL     OW55872   0.152   4.253   0.715 -0.3916 -0.1918 -0.2766
18144SOL    HW155873   0.216   4.199   0.670 -1.5908 -1.1343 -0.8990
18144SOL    HW255874   0.081   4.265   0.652 -2.0480 -1.4228  1.2497
18145SOL     OW55875   5.767   2.493   4.159 -0.0423  0.1343 -0.0175
18145SOL    HW155876   5.784   2.573   4.209 -0.5365  2.1282 -2.8015
18145SOL    HW255877   5.848   2.478   4.109 -0.4246 -0.3137 -0.5233
18146SOL     OW55878   4.618   4.652  10.159  0.2206  0.1145  0.0813
18146SOL    HW155879   4.662   4.737  10.165  0.6710 -0.0454 -0.7330
18146SOL    HW255880   4.538   4.670  10.109 -0.4436  0.3244  1.1894
18147SOL     OW55881   2.782   3.132   1.111 -0.0428 -0.2794  0.0809
18147SOL    HW155882   2.862   3.178   1.136 -1.2703  2.5438 -0.7351
18147SOL    HW255883   2.800   3.100   1.023 -0.0050  1.0269 -0.4162
18148SOL     OW55884   3.818   6.203  11.884  0.2579  0.2624  0.0774
18148SOL    HW155885   3.738   6.185  11.933  0.4483 -1.2549 -0.1190
18148SOL    HW255886   3.805   6.162  11.799  1.7285 -1.1681  0.4888
18149SOL     OW55887   3.755   1.151   3.967  0.0041 -0.5409 -0.5023
18149SOL    HW155888   3.672   1.187   4.000  0.0404 -0.4076 -0.5594
18149SOL    HW255889   3.781   1.209   3.896  0.6314 -0.0308  0.1294
18150SOL     OW55890   2.616   7.660   6.305 -0.3225  0.1878 -0.5245
18150SOL    HW155891   2.589   7.623   6.220 -2.0977  2.3265 -0.9679
18150SOL    HW255892   2.709   7.637   6.313 -0.4761 -1.2851 -2.3654
18151SOL     OW55893   0.465   4.696   1.592  0.2537  0.0919  0.4304
18151SOL    HW155894   0.417   4.722   1.514  0.7466  0.7015  0.3246
18151SOL    HW255895   0.530   4.633   1.561 -0.5214 -0.8128  0.5892
18152SOL     OW55896   6.312   1.996  11.323 -0.3594 -0.0853  0.2087
18152SOL    HW155897   6.390   1.981  11.270 -0.5006 -1.6330  0.4078
18152SOL    HW255898   6.319   1.933  11.395 -1.3639  0.3477  0.7110
18153SOL     OW55899   5.202   5.755   6.577 -0.2688 -0.3806 -0.5043
18153SOL    HW155900   5.155   5.731   6.657  0.9337  0.1764  0.3911
18153SOL    HW255901   5.279   5.698   6.576  1.3203  1.6066  0.3736
18154SOL     OW55902   3.777   2.924   7.385  0.0157 -0.0667  0.2479
18154SOL    HW155903   3.787   2.836   7.421  1.1945 -0.7748 -1.6499
18154SOL    HW255904   3.805   2.916   7.294  0.3303  2.3239  0.0680
18155SOL     OW55905   5.876   6.762   3.283  0.2774  0.0037 -0.2676
18155SOL    HW155906   5.901   6.791   3.195  0.5336  2.2161  0.4735
18155SOL    HW255907   5.836   6.839   3.323 -2.0969 -1.6245  0.7703
18156SOL     OW55908   5.545   6.923  10.790 -0.3798  0.3228  0.0076
18156SOL    HW155909   5.552   6.828  10.801  0.5813  0.1373 -1.7792
18156SOL    HW255910   5.635   6.951  10.771 -0.8257  1.4156 -0.5762
18157SOL     OW55911   2.706   4.747   4.792 -0.3147  0.0261 -0.0056
18157SOL    HW155912   2.627   4.768   4.743 -0.7912  0.5766  0.9806
18157SOL    HW255913   2.700   4.652   4.807 -1.5744  0.2844  1.3620
18158SOL     OW55914   2.166   2.507  12.464  0.8576  0.5160 -0.7937
18158SOL    HW155915   2.216   2.569  12.518 -0.3575  0.3222  0.6576
18158SOL    HW255916   2.155   2.552  12.380  2.2632  1.1244 -0.6747
18159SOL     OW55917   0.338   4.712   8.835 -0.0575 -0.4193  0.2408
18159SOL    HW155918   0.322   4.618   8.831 -1.3758 -0.1759 -0.9229
18159SOL    HW255919   0.375   4.727   8.922 -2.3662 -1.6261  1.5015
18160SOL     OW55920   1.332   3.308   7.168 -0.1642 -0.3284  0.0018
18160SOL    HW155921   1.260   3.340   7.114  0.0091  1.1424  0.5989
18160SOL    HW255922   1.291   3.249   7.231 -0.9049  0.6631  0.4768
18161SOL     OW55923   1.628   1.333   0.881  0.3608  0.6359 -0.4474
18161SOL    HW155924   1.551   1.291   0.920 -1.2875  0.8222 -3.2346
18161SOL    HW255925   1.687   1.260   0.859 -1.0340 -0.0166 -2.2764
18162SOL     OW55926   0.559   2.546   8.764  0.2297  0.0294 -0.3310
18162SOL    HW155927   0.565   2.515   8.674 -0.2008  1.4625 -0.8926
18162SOL    HW255928   0.464   2.549   8.781  0.2875 -3.0895  1.2758
18163SOL     OW55929   2.931   5.101   5.142  0.2261  0.1247  0.3348
18163SOL    HW155930   2.852   5.047   5.146  0.8058 -0.7194  1.0416
18163SOL    HW255931   2.979   5.078   5.222  1.0394  0.8468  0.0711
18164SOL     OW55932   2.077   3.870   2.631 -0.2764 -0.3301  0.6322
18164SOL    HW155933   2.108   3.855   2.541  1.1035  2.0994  0.6267
18164SOL    HW255934   2.149   3.916   2.673 -0.6663 -1.8957  3.2211
18165SOL     OW55935   4.208   2.534  10.879  0.5504 -0.3438 -0.4552
18165SOL    HW155936   4.193   2.620  10.840 -0.0602 -0.2989 -0.1279
18165SOL    HW255937   4.210   2.474  10.805 -0.2792 -0.2142 -0.5880
18166SOL     OW55938   4.395   3.069  11.565  0.0767 -0.4578 -0.1529
18166SOL    HW155939   4.489   3.049  11.566  0.3251  0.6316 -0.1333
18166SOL    HW255940   4.370   3.068  11.657  0.5020  1.0554  0.0108
18167SOL     OW55941   2.974   2.289  11.880 -0.4932  0.0416  0.6817
18167SOL    HW155942   3.024   2.208  11.885  0.3237  0.3135 -1.6909
18167SOL    HW255943   3.007   2.342  11.952  1.2043 -0.5721  0.4072
18168SOL     OW55944   2.081   6.137   6.398 -0.7451 -0.1552 -0.0250
18168SOL    HW155945   2.038   6.065   6.352  2.2743 -2.0654 -0.1369
18168SOL    HW255946   2.168   6.141   6.360 -0.3338  2.6480  1.0270
18169SOL     OW55947   3.008   4.642   2.260 -0.4922  0.1843 -0.6803
18169SOL    HW155948   2.988   4.566   2.314  0.1975  0.3094 -0.2398
18169SOL    HW255949   3.069   4.609   2.194 -2.2252 -0.2436 -2.1456
18170SOL     OW55950   5.327   7.940  11.610  0.2829  0.0182 -0.4798
18170SOL    HW155951   5.370   7.875  11.665  1.1652  0.4374 -0.6556
18170SOL    HW255952   5.399   7.984  11.564 -0.4040  0.0139 -1.5861
18171SOL     OW55953   1.798   5.602   8.715  0.8950  0.3607  0.0126
18171SOL    HW155954   1.705   5.597   8.696  0.9230  0.9803 -0.3184
18171SOL    HW255955   1.839   5.621   8.630  1.3971 -0.6253  0.0162
18172SOL     OW55956   5.028   1.122   6.627  0.5333 -0.2421 -0.4735
18172SOL    HW155957   5.076   1.148   6.706 -0.6857  0.1404  0.1552
18172SOL    HW255958   5.097   1.098   6.565  1.5863  1.3896  0.0037
18173SOL     OW55959   3.164   2.440   5.668 -0.2002 -0.8092 -0.5314
18173SOL    HW155960   3.109   2.441   5.589  1.1729 -3.0414 -1.6298
18173SOL    HW255961   3.226   2.512   5.655 -1.6583  0.5544 -0.1537
18174SOL     OW55962   0.531   0.399   0.557  0.2538 -0.5954 -0.1200
18174SOL    HW155963   0.623   0.414   0.582  0.0742  1.8347 -0.6496
18174SOL    HW255964   0.528   0.420   0.464 -1.2645  1.8524  0.4057
18175SOL     OW55965   7.329   6.937   4.541  0.3193  0.7035  0.0402
18175SOL    HW155966   7.272   6.881   4.593  0.0724  1.0347  0.1360
18175SOL    HW255967   7.334   7.019   4.590 -0.1332  1.1182 -0.5815
18176SOL     OW55968   0.353   0.612   8.975 -0.2709 -0.0715 -0.1232
18176SOL    HW155969   0.319   0.557   8.905 -0.9210  2.3899 -1.8354
18176SOL    HW255970   0.434   0.649   8.940 -0.6810  1.3213  0.3501
18177SOL     OW55971   0.044   3.901   9.469 -0.0294 -0.4133  0.2122
18177SOL    HW155972   0.065   3.992   9.493 -0.8121  0.4168 -2.0143
18177SOL    HW255973  -0.020   3.874   9.535  0.4625  0.5156  1.1107
18178SOL     OW55974   3.539   7.254  10.280 -0.0890 -0.4177  0.8021
18178SOL    HW155975   3.627   7.253  10.242  0.2980  0.5410  1.6173
18178SOL    HW255976   3.495   7.328  10.239 -0.4032 -0.6827  0.6545
18179SOL     OW55977   6.154   0.467   2.450  0.2433 -0.4877 -0.3265
18179SOL    HW155978   6.093   0.429   2.387  0.9913 -0.0636 -1.3275
18179SOL    HW255979   6.203   0.392   2.484  0.4900 -0.6232 -0.9666
18180SOL     OW55980   6.834   1.637   1.398 -0.5532  0.0926  0.4374
18180SOL    HW155981   6.835   1.693   1.321 -1.7012  0.6681  0.8275
18180SOL    HW255982   6.744   1.640   1.429 -0.0315  0.1427  2.0071
18181SOL     OW55983   4.721   5.427   9.548 -0.4100 -0.1091 -0.2742
18181SOL    HW155984   4.666   5.366   9.499  1.3154 -0.8788 -1.3480
18181SOL    HW255985   4.779   5.466   9.483  1.0857 -0.2046  0.9254
18182SOL     OW55986   0.440   6.050   2.790  0.2076 -0.0417  0.2125
18182SOL    HW155987   0.368   5.988   2.784 -0.5362  0.8011  0.2757
18182SOL    HW255988   0.401   6.130   2.823  1.1931  0.4082  0.3415
18183SOL     OW55989   1.419   6.324  11.790  0.1478  0.0661  0.1738
18183SOL    HW155990   1.331   6.298  11.763 -0.5110 -0.1301  2.2990
18183SOL    HW255991   1.471   6.243  11.787 -0.2643 -0.2249  0.7605
18184SOL     OW55992   7.556   2.208   4.830 -0.1566  0.1919  0.4757
18184SOL    HW155993   7.607   2.201   4.911  0.1555 -0.1462  0.2512
18184SOL    HW255994   7.586   2.136   4.776 -2.2082 -1.1995  1.0566
18185SOL     OW55995   6.457   7.486   0.735  0.0620 -0.0357 -0.0832
18185SOL    HW155996   6.377   7.538   0.724  0.9814  1.6607  0.8641
18185SOL    HW255997   6.460   7.468   0.829 -0.2707 -1.9317 -0.3999
18186SOL     OW55998   2.976   5.383   6.206  0.0974  0.4670  0.4599
18186SOL    HW155999   2.939   5.332   6.134  2.6770 -0.0362 -0.6228
18186SOL    HW256000   2.903   5.437   6.238 -1.8178 -1.3350 -0.6554
18187SOL     OW56001   7.974   7.215  10.687 -0.1325  0.0685  0.5100
18187SOL    HW156002   7.929   7.277  10.630  0.0776 -0.1528  0.0998
18187SOL    HW256003   7.987   7.263  10.769 -0.2961  0.4412  0.3196
18188SOL     OW56004   4.630   4.183   1.389 -0.1735  0.0314 -0.0594
18188SOL    HW156005   4.643   4.244   1.461  0.1973  0.1895 -0.2589
18188SOL    HW256006   4.718   4.159   1.361 -0.3114  0.1721 -0.6293
18189SOL     OW56007   7.158   6.492  12.284  0.3502 -0.0466 -0.5466
18189SOL    HW156008   7.199   6.447  12.358  1.3843 -0.2509 -1.2230
18189SOL    HW256009   7.160   6.584  12.309  1.9020  0.0334 -0.8517
18190SOL     OW56010   6.427   6.907   1.291  0.5796  0.0289 -0.2808
18190SOL    HW156011   6.336   6.883   1.270  1.1470 -0.9492 -1.8218
18190SOL    HW256012   6.424   6.934   1.382 -1.4530  0.9916 -0.5572
18191SOL     OW56013   3.435   3.564   1.870  0.0878 -0.1592 -0.5555
18191SOL    HW156014   3.348   3.577   1.908  1.1924 -0.3744  2.3071
18191SOL    HW256015   3.444   3.469   1.863  0.6450 -0.2041  0.6325
18192SOL     OW56016   1.697   6.507   3.258  0.0034 -0.0034 -1.0983
18192SOL    HW156017   1.772   6.454   3.230 -0.4362 -0.5073 -1.3476
18192SOL    HW256018   1.647   6.521   3.178  0.7056  1.8059 -1.2788
18193SOL     OW56019   1.817   2.421   3.752  0.6207  0.8148 -0.1493
18193SOL    HW156020   1.748   2.478   3.717 -1.2105 -1.9719 -1.4145
18193SOL    HW256021   1.858   2.382   3.675  1.8337  0.3900  0.6789
18194SOL     OW56022   1.204   3.680   3.320  0.1405 -0.0168 -0.6005
18194SOL    HW156023   1.216   3.610   3.384 -0.5389  0.3694 -0.0328
18194SOL    HW256024   1.123   3.724   3.348  0.2638  0.6484 -1.2672
18195SOL     OW56025   5.924   4.069   2.192  0.0807  0.0143  0.3691
18195SOL    HW156026   5.982   4.013   2.243 -1.5676  0.0710  2.4198
18195SOL    HW256027   5.872   4.008   2.139 -1.1168 -0.4317  1.9663
18196SOL     OW56028   3.829   5.932  11.973  0.3152 -0.3233  0.5107
18196SOL    HW156029   3.751   5.943  11.919  0.2092  0.8028  0.8643
18196SOL    HW256030   3.844   6.018  12.012  1.6727 -0.5422  0.5351
18197SOL     OW56031   4.266   5.706   1.497 -0.7543 -0.0730 -0.2089
18197SOL    HW156032   4.305   5.644   1.435 -1.1316  0.6479 -1.2018
18197SOL    HW256033   4.304   5.683   1.582  2.0604  0.7533 -1.1323
18198SOL     OW56034   0.616   0.400   8.670  0.1203  0.2631  0.5321
18198SOL    HW156035   0.554   0.327   8.671 -1.7313  1.6978 -0.5495
18198SOL    HW256036   0.576   0.465   8.728  0.0604  1.5909 -0.9163
18199SOL     OW56037   7.297   1.238   8.184 -0.1330 -0.7328 -0.0189
18199SOL    HW156038   7.226   1.175   8.171 -1.3435  0.3129  1.1841
18199SOL    HW256039   7.367   1.187   8.226 -0.2143 -1.7421 -1.0763
18200SOL     OW56040   5.544   0.779   4.049 -0.0249 -0.4385  0.3616
18200SOL    HW156041   5.609   0.849   4.055 -0.4334  0.3431 -2.5584
18200SOL    HW256042   5.591   0.700   4.075  2.4666 -0.0315 -2.3218
18201SOL     OW56043   5.464   2.345   7.161 -0.0377 -0.3457  0.1594
18201SOL    HW156044   5.420   2.312   7.240 -0.6512 -0.3088 -0.1638
18201SOL    HW256045   5.455   2.440   7.168  0.4986 -0.3104  0.3824
18202SOL     OW56046   0.104   7.446   2.294 -0.0918  0.1220  0.1450
18202SOL    HW156047   0.061   7.435   2.378 -0.1298 -1.0048 -0.0036
18202SOL    HW256048   0.121   7.357   2.264  0.8436  0.5232 -0.5678
18203SOL     OW56049   5.879   5.691   6.039  0.7775 -0.5112  0.1680
18203SOL    HW156050   5.880   5.755   5.967 -0.4357  0.0576  0.6275
18203SOL    HW256051   5.966   5.699   6.079  1.2017 -0.2936 -0.7605
18204SOL     OW56052   7.964   6.878   8.221 -0.1248  0.2714  0.3325
18204SOL    HW156053   8.010   6.801   8.188 -0.5243  0.5062 -0.8276
18204SOL    HW256054   7.872   6.853   8.223 -0.1162  0.2990  1.1907
18205SOL     OW56055   3.512   0.415  11.693  0.2709  0.4683 -0.3140
18205SOL    HW156056   3.541   0.505  11.678 -1.8423  1.2766  0.0981
18205SOL    HW256057   3.501   0.378  11.606  1.2984  0.5452 -0.4850
18206SOL     OW56058   0.136   4.460   3.751  0.3857  0.0510  0.1999
18206SOL    HW156059   0.086   4.517   3.809 -0.9650  1.2281 -2.0071
18206SOL    HW256060   0.099   4.373   3.766  0.2211  0.2859  1.2343
18207SOL     OW56061   5.830   4.491   1.484 -0.3013  0.0927  0.4599
18207SOL    HW156062   5.858   4.515   1.395 -0.4249 -2.6960 -0.4450
18207SOL    HW256063   5.735   4.500   1.482 -0.2413  0.7566  0.5543
18208SOL     OW56064   6.686   2.846   6.058  0.0114 -0.5078  0.3106
18208SOL    HW156065   6.591   2.857   6.052  0.1788  1.8559  0.9441
18208SOL    HW256066   6.721   2.934   6.047  2.1096 -1.2355  0.7358
18209SOL     OW56067   1.701   4.438  11.389  0.0217  0.1213 -0.2003
18209SOL    HW156068   1.766   4.368  11.397 -1.1891 -0.8775  1.8275
18209SOL    HW256069   1.740   4.512  11.434  0.9001  0.4722 -1.4899
18210SOL     OW56070   4.335   3.272   1.103 -0.1764 -0.4292 -0.0452
18210SOL    HW156071   4.309   3.305   1.017  1.2136  4.4358  1.0642
18210SOL    HW256072   4.421   3.312   1.118  1.5960 -4.4636  2.0574
18211SOL     OW56073   1.490   0.111   2.716  0.0302  0.4991  0.0657
18211SOL    HW156074   1.552   0.065   2.773 -0.4176  0.1396  0.2765
18211SOL    HW256075   1.504   0.073   2.629  1.1856  1.5212 -0.2202
18212SOL     OW56076   1.675   0.257   8.432  0.0631  0.0680  0.1956
18212SOL    HW156077   1.657   0.182   8.376 -0.0179  0.2434 -0.0123
18212SOL    HW256078   1.698   0.218   8.517  0.3700 -0.2034 -0.0074
18213SOL     OW56079   4.848   1.385  10.421  0.3628 -0.2170 -0.1410
18213SOL    HW156080   4.891   1.322  10.363  1.5577  0.0207  0.4515
18213SOL    HW256081   4.919   1.443  10.450 -0.9028  2.2239 -1.6717
18214SOL     OW56082   3.371   5.619  10.754 -0.2179 -0.3828  0.3159
18214SOL    HW156083   3.429   5.640  10.828  1.1768  1.3877 -1.1529
18214SOL    HW256084   3.315   5.697  10.745  1.5613  0.7673 -2.1281
18215SOL     OW56085   5.259   7.656   0.190 -0.0424  0.1066 -0.0284
18215SOL    HW156086   5.327   7.724   0.186  0.9491 -0.8325  0.3225
18215SOL    HW256087   5.224   7.663   0.279 -0.4636  0.6264 -0.2262
18216SOL     OW56088   3.097   6.059   5.598  0.0965  0.3553  0.0641
18216SOL    HW156089   3.085   6.032   5.507 -1.8839 -0.7468  0.5857
18216SOL    HW256090   3.019   6.026   5.643  0.7056  1.4507  2.0402
18217SOL     OW56091   7.824   0.106   5.301  0.0007 -0.3340  0.5479
18217SOL    HW156092   7.774   0.050   5.242  0.5043 -0.8340  0.5897
18217SOL    HW256093   7.791   0.085   5.389  0.0475 -0.4280  0.5441
18218SOL     OW56094   5.069   6.513   3.999 -0.1245  0.1693  0.5423
18218SOL    HW156095   5.090   6.537   4.089  3.4997 -1.0102  0.2075
18218SOL    HW256096   5.018   6.433   4.006 -0.1533  0.2709  1.5705
18219SOL     OW56097   2.843   2.892   4.622 -0.0552 -0.0779 -0.4020
18219SOL    HW156098   2.880   2.914   4.707 -1.7863 -0.8091  0.5837
18219SOL    HW256099   2.783   2.964   4.602 -0.0096 -0.1434 -0.7978
18220SOL     OW56100   2.591   3.975   1.885 -0.2664  0.3202  0.4960
18220SOL    HW156101   2.545   4.039   1.830 -0.8080 -1.4923 -1.2862
18220SOL    HW256102   2.673   3.957   1.838 -0.5368 -0.9474  0.4712
18221SOL     OW56103   2.612   5.091   9.793 -0.6572 -0.0168 -0.7873
18221SOL    HW156104   2.654   5.021   9.843  0.7152  0.7732 -0.7859
18221SOL    HW256105   2.637   5.073   9.702  2.5780  2.2535 -0.4966
18222SOL     OW56106   0.724   6.702   0.676  0.1256 -0.4773  0.2894
18222SOL    HW156107   0.706   6.674   0.766 -0.1749  0.8820  0.6782
18222SOL    HW256108   0.644   6.681   0.628  0.3113 -1.2666  0.3197
18223SOL     OW56109   3.649   6.547   1.744 -0.1213 -0.2910  0.2452
18223SOL    HW156110   3.730   6.496   1.738 -1.2128 -2.0427 -0.5676
18223SOL    HW256111   3.626   6.566   1.653 -0.2898  0.7654  0.5008
18224SOL     OW56112   7.323   6.437  10.965  0.2600 -0.2535 -0.3117
18224SOL    HW156113   7.277   6.521  10.970  1.8052  0.6626 -0.6820
18224SOL    HW256114   7.311   6.408  10.875  1.3251  0.5615 -0.7379
18225SOL     OW56115   1.418   5.256  11.239  0.0118 -0.2061 -0.1218
18225SOL    HW156116   1.475   5.188  11.206  0.3303  0.0229 -0.0463
18225SOL    HW256117   1.339   5.210  11.267  0.4327 -0.6040  0.4187
18226SOL     OW56118   0.579   6.060   4.875 -0.0928 -0.0378 -0.0671
18226SOL    HW156119   0.609   6.060   4.966  1.1302  0.2604 -0.4412
18226SOL    HW256120   0.488   6.088   4.879 -0.1363 -0.3145  1.0887
18227SOL     OW56121   6.895   2.028   3.480 -0.5234  0.2943 -0.2579
18227SOL    HW156122   6.942   1.987   3.553 -0.2647  1.5392  0.3158
18227SOL    HW256123   6.960   2.032   3.410 -0.9229 -1.3705 -0.7693
18228SOL     OW56124   0.196   6.699   8.913  0.2666 -0.1944  0.6414
18228SOL    HW156125   0.209   6.747   8.831  0.1808 -0.4567  0.4706
18228SOL    HW256126   0.150   6.619   8.886  1.1750 -0.7880  0.7979
18229SOL     OW56127   0.928   6.611  10.618  0.9379 -0.1493 -0.2242
18229SOL    HW156128   1.002   6.560  10.651  0.9909 -0.1687 -0.3702
18229SOL    HW256129   0.936   6.696  10.660  2.2218  0.5588 -1.7677
18230SOL     OW56130   1.210   5.730  11.000 -0.5802  0.0541  0.8599
18230SOL    HW156131   1.124   5.743  10.961  0.0967  1.3614 -0.3179
18230SOL    HW256132   1.265   5.699  10.928 -0.1845 -1.3455  1.7337
18231SOL     OW56133   3.069   0.621   6.549  0.2837 -0.4700  0.3750
18231SOL    HW156134   2.988   0.665   6.523  0.5745 -0.3560 -0.3629
18231SOL    HW256135   3.041   0.552   6.610 -0.6295 -1.8316 -1.4872
18232SOL     OW56136   1.770   3.636   2.974  0.0487  0.0152 -0.1070
18232SOL    HW156137   1.797   3.648   2.883 -1.1618  0.8779 -0.3750
18232SOL    HW256138   1.833   3.688   3.024 -0.6282  1.4130 -0.6608
18233SOL     OW56139   2.910   6.032   3.100  0.4295  0.1119  0.2144
18233SOL    HW156140   2.967   6.108   3.114  0.4843 -0.1653  1.6994
18233SOL    HW256141   2.835   6.048   3.158  1.3198 -1.8093  2.0436
18234SOL     OW56142   0.413   6.700   7.259  0.6549 -0.2036 -0.0019
18234SOL    HW156143   0.474   6.774   7.266  0.4657  0.0922 -1.1757
18234SOL    HW256144   0.347   6.717   7.326 -0.1723  1.4859 -1.1592
18235SOL     OW56145   1.246   7.456  11.229  0.0792  0.1027 -0.7589
18235SOL    HW156146   1.151   7.458  11.224 -0.1185  2.1125  1.8510
18235SOL    HW256147   1.267   7.373  11.272 -0.6452  0.4368  0.2611
18236SOL     OW56148   5.425   5.236   6.065 -0.5412  0.1528 -0.5426
18236SOL    HW156149   5.410   5.310   6.006 -2.5990 -0.6345 -1.0780
18236SOL    HW256150   5.456   5.166   6.008 -0.3571  0.0449 -0.3121
18237SOL     OW56151   6.798   4.998   3.689  0.3398 -0.1553 -0.2790
18237SOL    HW156152   6.759   5.036   3.610 -0.4130  0.7028  0.4832
18237SOL    HW256153   6.743   5.030   3.761 -0.1092 -2.4213  0.4448
18238SOL     OW56154   5.790   2.435   2.514 -0.5514  0.5949  0.1902
18238SOL    HW156155   5.872   2.425   2.466 -0.9849 -0.7053 -0.3184
18238SOL    HW256156   5.796   2.370   2.584 -1.6640 -0.4057 -0.6116
18239SOL     OW56157   7.305   1.268  10.380  0.5066 -0.4789  0.3474
18239SOL    HW156158   7.267   1.182  10.393  0.9482 -0.3552  2.9998
18239SOL    HW256159   7.399   1.252  10.371  0.6288 -0.2829  1.1747
18240SOL     OW56160   6.369   6.210   2.473 -0.0493  0.0919  0.6352
18240SOL    HW156161   6.300   6.275   2.483  0.6135  0.9110  0.0419
18240SOL    HW256162   6.323   6.126   2.469 -1.2479  0.7666 -2.0987
18241SOL     OW56163   5.789   2.025   6.963 -0.2096  0.2976 -0.0317
18241SOL    HW156164   5.768   2.042   6.871 -2.6845  0.1986  0.4586
18241SOL    HW256165   5.760   2.104   7.009  0.9471  0.3153  0.7202
18242SOL     OW56166   0.569   0.789   5.638  1.0217 -0.0435 -0.1563
18242SOL    HW156167   0.626   0.798   5.561  1.7455  1.0541  0.4802
18242SOL    HW256168   0.484   0.763   5.602  1.3096  0.5845 -1.3463
18243SOL     OW56169   3.654   7.018   3.919 -0.2112  0.5815 -0.1356
18243SOL    HW156170   3.595   6.960   3.872  1.0490  0.3102 -1.4720
18243SOL    HW256171   3.683   7.081   3.853  0.1605  1.3549  0.7438
18244SOL     OW56172   3.759   0.180  10.922  0.6841  0.2434  0.6003
18244SOL    HW156173   3.765   0.252  10.859  0.3152  0.3711  0.7075
18244SOL    HW256174   3.694   0.121  10.884 -0.0590  0.6559  1.1766
18245SOL     OW56175   3.344   1.414   7.935  0.5525  0.3789  0.1841
18245SOL    HW156176   3.405   1.382   7.869  1.8467  0.2492  1.4018
18245SOL    HW256177   3.304   1.334   7.971  1.2232  0.3245  0.8267
18246SOL     OW56178   0.809   3.936   0.099 -0.1345  0.2819 -0.1747
18246SOL    HW156179   0.831   3.871   0.031  1.2266 -0.1969  0.6828
18246SOL    HW256180   0.792   3.883   0.177 -1.5529  0.8417 -0.0810
18247SOL     OW56181   3.197   7.534  10.094  0.2075 -0.4397  0.2556
18247SOL    HW156182   3.202   7.629  10.108 -0.2622 -0.2652 -0.7093
18247SOL    HW256183   3.130   7.523  10.027  0.1422 -1.4763  0.4736
18248SOL     OW56184   2.892   6.414   0.461 -0.0040 -0.1820 -0.1162
18248SOL    HW156185   2.828   6.485   0.473  0.7646  0.9126 -2.0780
18248SOL    HW256186   2.951   6.423   0.537 -1.8552 -0.9387  1.4882
18249SOL     OW56187   5.308   4.676   6.852 -1.0428 -0.3189 -0.6501
18249SOL    HW156188   5.301   4.722   6.936  0.1257 -1.7134  0.2669
18249SOL    HW256189   5.345   4.591   6.875  2.4906  0.4036 -2.9158
18250SOL     OW56190   1.470   6.005   0.918 -0.0877 -0.0578 -0.6822
18250SOL    HW156191   1.488   6.075   0.980  0.8046 -0.2974 -0.6568
18250SOL    HW256192   1.379   5.981   0.934  0.0237  0.1415  0.2663
18251SOL     OW56193   7.717   5.297   8.850 -0.8639  1.0203  0.0010
18251SOL    HW156194   7.642   5.258   8.805 -0.4483 -0.1910  0.3104
18251SOL    HW256195   7.792   5.271   8.797 -0.5710  1.3811  0.2393
18252SOL     OW56196   3.415   2.906   4.310  0.0240 -0.4194  0.2954
18252SOL    HW156197   3.402   2.977   4.372 -1.5223 -0.2079 -0.2257
18252SOL    HW256198   3.490   2.933   4.258 -1.7002  1.8911 -1.2211
18253SOL     OW56199   4.106   7.814   3.152  0.0444 -0.2881  0.0811
18253SOL    HW156200   4.178   7.825   3.215 -0.1065 -0.6548  0.3174
18253SOL    HW256201   4.137   7.859   3.073  1.0330 -1.4201 -0.2064
18254SOL     OW56202   6.006   3.632   8.718  0.0805  0.2442 -0.3065
18254SOL    HW156203   6.088   3.613   8.763 -1.0087 -1.1170  1.2199
18254SOL    HW256204   6.015   3.723   8.690  1.8597  0.3148  0.3384
18255SOL     OW56205   2.989   5.973   4.487  0.2074  0.7280 -0.1491
18255SOL    HW156206   2.907   5.999   4.445  0.1839  2.4380  0.8373
18255SOL    HW256207   3.040   6.054   4.492  1.3231  0.0132  0.6157
18256SOL     OW56208   5.057   6.924   0.412  0.5768  0.6933 -0.0202
18256SOL    HW156209   5.138   6.959   0.449 -0.0089  1.1545  0.8766
18256SOL    HW256210   5.027   6.859   0.476 -0.7245  1.8764  0.6310
18257SOL     OW56211   6.242   3.314   1.429  0.2045 -0.1256  0.1600
18257SOL    HW156212   6.298   3.312   1.506 -0.6973  0.1544  0.8392
18257SOL    HW256213   6.186   3.237   1.438  0.6933 -0.6096 -0.7007
18258SOL     OW56214   1.348   2.338   4.604 -0.7048 -0.4059 -0.0204
18258SOL    HW156215   1.418   2.386   4.560 -2.1331  0.1521 -1.7543
18258SOL    HW256216   1.331   2.263   4.548 -0.9102 -1.0503  0.8709
18259SOL     OW56217   6.333   0.942   5.863  0.2856  1.2754  0.4007
18259SOL    HW156218   6.414   0.991   5.878  1.7129 -0.2178 -1.9011
18259SOL    HW256219   6.336   0.871   5.928  0.8306  1.2260  0.3297
18260SOL     OW56220   5.786   6.547   2.639 -0.2327 -0.3063  0.1922
18260SOL    HW156221   5.864   6.602   2.645 -0.8547  0.5450  0.6008
18260SOL    HW256222   5.760   6.532   2.730 -0.5387 -0.6023  0.0597
18261SOL     OW56223   0.931   0.589   9.211  0.2749 -0.5710 -0.3558
18261SOL    HW156224   0.983   0.509   9.205  0.3055 -0.4223 -3.0878
18261SOL    HW256225   0.871   0.574   9.284  1.6396 -2.2251  0.4844
18262SOL     OW56226   3.784   6.834   5.342  0.5450  0.4208 -0.3440
18262SOL    HW156227   3.793   6.885   5.423 -2.2411  0.7825 -0.1725
18262SOL    HW256228   3.780   6.900   5.273  0.8345  0.2268 -0.5432
18263SOL     OW56229   0.431   2.290  10.220 -0.1322 -0.2181  0.0673
18263SOL    HW156230   0.460   2.370  10.178 -0.1777 -0.3560 -0.2268
18263SOL    HW256231   0.403   2.317  10.308  0.2450  0.0197  0.1145
18264SOL     OW56232   3.425   0.870  12.292  0.0972  0.2189 -0.4807
18264SOL    HW156233   3.427   0.819  12.211 -0.7574 -0.4143 -0.1166
18264SOL    HW256234   3.333   0.892  12.305  0.5456  2.7318 -1.1291
18265SOL     OW56235   0.390   6.195   1.119  0.1824  0.3563  0.0709
18265SOL    HW156236   0.304   6.157   1.099  0.4475 -0.2795  0.1290
18265SOL    HW256237   0.437   6.195   1.035  1.0017 -1.5686  0.4806
18266SOL     OW56238   7.431   7.848  11.118  0.1929  0.3915 -0.4730
18266SOL    HW156239   7.337   7.847  11.104  0.1334 -1.6333 -0.1959
18266SOL    HW256240   7.443   7.897  11.200 -0.5377  1.1933 -0.8286
18267SOL     OW56241   1.892   2.638  11.767  0.2848 -0.3122  0.0305
18267SOL    HW156242   1.978   2.680  11.755 -1.5546  3.2856 -2.4901
18267SOL    HW256243   1.864   2.667  11.854  0.5843  0.6552 -0.1831
18268SOL     OW56244   5.590   6.645   3.438 -0.2099  0.4020  0.4995
18268SOL    HW156245   5.544   6.577   3.389  0.4047  1.0011 -0.9582
18268SOL    HW256246   5.666   6.600   3.475  0.5579  0.4045 -1.0100
18269SOL     OW56247   4.188   5.841   7.586 -0.6748 -0.0459 -0.1916
18269SOL    HW156248   4.229   5.912   7.634 -1.1360 -1.3033  2.2608
18269SOL    HW256249   4.217   5.852   7.495  0.2731  2.4623  0.3491
18270SOL     OW56250   3.399   6.754   1.010 -0.0834  0.0810  0.2730
18270SOL    HW156251   3.373   6.844   0.990  1.5973  0.6419  0.4221
18270SOL    HW256252   3.492   6.751   0.986  0.0860 -1.3820  1.0388
18271SOL     OW56253   6.285   7.136   6.015  0.0444  0.5468 -0.1747
18271SOL    HW156254   6.266   7.212   6.070  0.6829  0.5537  0.0468
18271SOL    HW256255   6.353   7.088   6.063 -1.6924 -1.2346  0.6546
18272SOL     OW56256   3.942   0.464   1.660 -0.3823 -0.5307  0.0230
18272SOL    HW156257   3.916   0.539   1.607 -1.3557  0.0072  1.1946
18272SOL    HW256258   4.001   0.501   1.726 -0.2957 -0.9264  0.1695
18273SOL     OW56259   4.144   4.592  10.547  0.0717 -0.2622 -0.2137
18273SOL    HW156260   4.070   4.652  10.549 -0.1182 -0.4826 -0.5626
18273SOL    HW256261   4.212   4.638  10.498  1.3139  1.2319  2.6231
18274SOL     OW56262   3.864   7.895   6.180 -0.1547  0.2173 -0.0538
18274SOL    HW156263   3.905   7.827   6.126  2.2264  0.4468  1.3449
18274SOL    HW256264   3.902   7.882   6.267 -3.2924  0.3292  1.4558
18275SOL     OW56265   2.908   5.523   2.395  0.3633  0.2439  0.1952
18275SOL    HW156266   2.992   5.542   2.434  0.2631  0.9296  0.0778
18275SOL    HW256267   2.873   5.608   2.367  0.8844 -0.2666 -2.3057
18276SOL     OW56268   2.089   2.801   2.137 -0.0231 -0.3671  0.2568
18276SOL    HW156269   2.079   2.778   2.044 -0.6283 -1.3267  0.5564
18276SOL    HW256270   2.176   2.768   2.161 -0.3740 -1.2412  0.3532
18277SOL     OW56271   4.499   3.014  12.083  0.3831  0.2715 -0.2287
18277SOL    HW156272   4.554   2.963  12.024  1.0678  1.0955 -0.3329
18277SOL    HW256273   4.547   3.097  12.093 -0.6893  0.8802 -0.0611
18278SOL     OW56274   6.124   4.701   4.663  0.1841 -0.3482 -0.1242
18278SOL    HW156275   6.066   4.778   4.666  0.0008 -0.5140  1.4511
18278SOL    HW256276   6.135   4.683   4.569 -2.0914 -0.1501 -0.4940
18279SOL     OW56277   7.376   1.890   3.024 -0.1668  0.3419  1.2810
18279SOL    HW156278   7.365   1.931   2.938 -2.5583 -0.8255  0.9534
18279SOL    HW256279   7.345   1.955   3.087  0.2552  0.6650  1.1603
18280SOL     OW56280   3.210   5.149   3.180  0.5564  0.4038 -0.0864
18280SOL    HW156281   3.178   5.162   3.269  0.8761  1.8934 -0.1628
18280SOL    HW256282   3.300   5.118   3.191  0.3667 -0.0750  0.1108
18281SOL     OW56283   2.359   1.172   9.484  0.1985  0.2546 -0.0540
18281SOL    HW156284   2.310   1.109   9.432 -1.0846  1.6939 -0.6699
18281SOL    HW256285   2.300   1.195   9.556  0.9611  0.1694  0.6131
18282SOL     OW56286   4.743   7.490   2.382 -0.2719  0.2376 -0.1613
18282SOL    HW156287   4.736   7.533   2.296 -2.0014 -0.9046 -0.6444
18282SOL    HW256288   4.669   7.524   2.432  0.3676  0.4271  0.6737
18283SOL     OW56289   2.942   1.388   1.326 -0.2362  0.0165  0.2045
18283SOL    HW156290   2.853   1.368   1.299 -0.1035  0.1752 -0.3530
18283SOL    HW256291   2.956   1.478   1.297  0.1737 -0.0754  0.1123
18284SOL     OW56292   2.963   5.409   6.573 -0.6016 -0.1504  0.1926
18284SOL    HW156293   3.026   5.427   6.504 -1.5326  0.6555 -0.4779
18284SOL    HW256294   3.001   5.337   6.623  1.8072  1.6075  1.0605
18285SOL     OW56295   4.153   6.999   6.975 -0.0164  0.0952 -0.8113
18285SOL    HW156296   4.157   7.072   7.036  0.0523  1.2231 -2.1092
18285SOL    HW256297   4.103   7.033   6.900  0.5631 -0.9761 -1.7174
18286SOL     OW56298   7.794   4.035   5.597  0.5332  0.2967  0.3020
18286SOL    HW156299   7.722   4.023   5.659  1.7569 -1.6460  1.4569
18286SOL    HW256300   7.792   3.956   5.543  1.8731  0.1274  0.4676
18287SOL     OW56301   1.873   6.691   2.141 -0.1411  0.5819  0.3179
18287SOL    HW156302   1.964   6.722   2.145 -0.3656  1.1147  1.7457
18287SOL    HW256303   1.862   6.640   2.221 -1.6708  2.1627  1.1768
18288SOL     OW56304   1.401   4.509   8.383  0.0444 -0.1571  0.1528
18288SOL    HW156305   1.347   4.532   8.308 -0.1928  0.6813  0.5752
18288SOL    HW256306   1.347   4.449   8.434 -0.3649  0.4383  0.4167
18289SOL     OW56307   0.643   2.880   4.238  0.0223  0.7053 -0.3148
18289SOL    HW156308   0.562   2.832   4.257  1.3961 -1.4161  0.6431
18289SOL    HW256309   0.623   2.930   4.159 -2.2356  0.3264 -0.0671
18290SOL     OW56310   5.921   0.402   2.294  0.2716 -0.8037 -0.0214
18290SOL    HW156311   5.855   0.471   2.285  1.6480  0.3540 -1.5610
18290SOL    HW256312   5.888   0.330   2.240 -1.3329 -1.5790  1.8509
18291SOL     OW56313   2.050   6.189  10.660  0.4284  0.5696  0.3715
18291SOL    HW156314   2.062   6.096  10.676 -0.7529 -0.1320 -2.2068
18291SOL    HW256315   2.138   6.222  10.641  0.6155 -0.5287 -0.8190
18292SOL     OW56316   3.531   4.317   2.519  0.0042 -0.5766  0.0710
18292SOL    HW156317   3.516   4.296   2.611  1.4500  0.1801  0.5060
18292SOL    HW256318   3.589   4.393   2.521  3.4824 -2.9017 -1.3588
18293SOL     OW56319   6.236   0.598  11.283  0.5057 -0.5237 -0.4810
18293SOL    HW156320   6.264   0.586  11.373  0.8354  0.2271 -0.4761
18293SOL    HW256321   6.315   0.627  11.236  0.3193 -0.8133 -0.9903
18294SOL     OW56322   5.737   2.661  12.280 -0.5874 -0.0903  0.1451
18294SOL    HW156323   5.683   2.582  12.273 -0.4179 -0.1628 -0.3486
18294SOL    HW256324   5.795   2.657  12.204  1.0413 -0.7126  1.3661
18295SOL     OW56325   0.462   7.285   6.166 -0.2856  0.4340 -0.1683
18295SOL    HW156326   0.438   7.280   6.073 -1.9191  1.2072  0.1868
18295SOL    HW256327   0.534   7.348   6.168 -2.0961  2.6395 -0.6351
18296SOL     OW56328   4.167   5.434   4.061  0.1849 -0.4226 -0.5908
18296SOL    HW156329   4.209   5.519   4.062 -1.6256  0.5502 -1.2222
18296SOL    HW256330   4.239   5.371   4.061  1.5699  1.0948 -0.3961
18297SOL     OW56331   7.803   2.426   0.003 -0.5071  0.2137  0.3984
18297SOL    HW156332   7.817   2.335   0.028 -0.7095 -0.0585 -0.4511
18297SOL    HW256333   7.876   2.474   0.043  0.7031 -0.6060 -0.7504
18298SOL     OW56334   7.782   7.518   5.471  0.0368  0.1872 -0.0447
18298SOL    HW156335   7.833   7.556   5.543 -0.0506  0.3919 -0.0918
18298SOL    HW256336   7.697   7.561   5.477  0.0482  0.2463 -0.3073
18299SOL     OW56337   2.655   7.489   8.024  0.3257 -0.2038 -0.3042
18299SOL    HW156338   2.560   7.498   8.038  0.5792  2.3161  0.3309
18299SOL    HW256339   2.681   7.417   8.081 -1.3762 -1.9561 -1.5886
18300SOL     OW56340   6.989   2.640   6.266 -0.4986  0.2194  0.1304
18300SOL    HW156341   6.947   2.634   6.180 -2.5435 -0.0683  1.0701
18300SOL    HW256342   7.083   2.638   6.248 -0.8730 -0.1695 -2.0515
18301SOL     OW56343   1.290   3.404   8.031  0.3055 -0.6110 -0.2982
18301SOL    HW156344   1.218   3.386   8.091 -0.3866 -1.4382 -1.3527
18301SOL    HW256345   1.305   3.321   7.986  3.1386 -1.0079  1.1499
18302SOL     OW56346   0.988   1.384   5.854  0.0884 -0.4562  0.1162
18302SOL    HW156347   0.987   1.473   5.891  0.0941 -0.1180 -0.6797
18302SOL    HW256348   0.966   1.396   5.762  2.2513 -1.0341 -0.5424
18303SOL     OW56349   4.306   5.110   2.490 -0.5732 -0.1164  0.3772
18303SOL    HW156350   4.352   5.193   2.503 -1.3049  0.3320  0.2125
18303SOL    HW256351   4.355   5.047   2.542  1.0736  0.0175 -0.9344
18304SOL     OW56352   7.876   2.437   6.272 -0.0442  0.7780 -0.7075
18304SOL    HW156353   7.856   2.344   6.262  3.2028 -0.1595  0.2224
18304SOL    HW256354   7.918   2.462   6.190 -2.4217  2.0251 -1.6630
18305SOL     OW56355   3.952   0.032  11.029 -0.1159 -0.6386 -0.0227
18305SOL    HW156356   3.876   0.057  10.976 -0.7802 -0.4059  0.9998
18305SOL    HW256357   3.997   0.115  11.046  0.6515 -0.8322 -1.0170
18306SOL     OW56358   2.843   3.395   6.507  0.1708  0.1850  0.3522
18306SOL    HW156359   2.920   3.346   6.478  0.3122  0.7911 -0.3249
18306SOL    HW256360   2.860   3.414   6.599  0.3842 -0.5187  0.4635
18307SOL     OW56361   5.040   5.344   7.604 -0.3299 -0.4444  0.1235
18307SOL    HW156362   5.092   5.278   7.649  0.2200 -0.0763  0.0313
18307SOL    HW256363   4.963   5.357   7.659  0.9261  0.9306  1.6383
18308SOL     OW56364   4.210   5.379   7.187  0.0334 -0.2059  0.3150
18308SOL    HW156365   4.294   5.375   7.232 -0.2359 -1.5272  0.7663
18308SOL    HW256366   4.231   5.372   7.094  0.5283  1.4717  0.2819
18309SOL     OW56367   2.787   6.786   6.406 -0.2531 -0.1098 -0.0158
18309SOL    HW156368   2.878   6.773   6.434 -0.5897  0.0388  1.1975
18309SOL    HW256369   2.792   6.791   6.310  1.1977  1.2653  0.0843
18310SOL     OW56370   7.330   3.022   9.144 -0.1765 -0.2275 -0.3598
18310SOL    HW156371   7.242   3.027   9.180 -0.4586 -1.8016 -0.7587
18310SOL    HW256372   7.317   3.003   9.051  0.5827 -0.6580 -0.3883
18311SOL     OW56373   2.718   5.580   9.031  0.3425 -0.2248 -0.1863
18311SOL    HW156374   2.779   5.556   8.961  0.2426 -1.1801  0.0471
18311SOL    HW256375   2.748   5.531   9.107  0.0170  0.2547  0.2532
18312SOL     OW56376   3.673   0.092   5.632 -0.8292 -0.5800 -0.2530
18312SOL    HW156377   3.709   0.029   5.570  0.5814  0.7919 -0.8993
18312SOL    HW256378   3.744   0.154   5.647 -2.5779  1.6784 -0.7482
18313SOL     OW56379   6.767   4.529   6.012 -0.2596 -0.3209 -0.2933
18313SOL    HW156380   6.689   4.499   6.059  0.1538 -1.1108 -0.0803
18313SOL    HW256381   6.823   4.565   6.080 -0.1931 -0.3031 -0.3577
18314SOL     OW56382   2.985   5.451   0.512  0.1370 -0.5429  0.1094
18314SOL    HW156383   3.036   5.400   0.449  1.5294  0.2383  0.5799
18314SOL    HW256384   2.942   5.519   0.459  0.5290 -0.4812 -0.1278
18315SOL     OW56385   2.898   7.816   9.144  0.0640 -0.3462  0.0921
18315SOL    HW156386   2.954   7.893   9.132 -1.7820  0.7256 -2.9933
18315SOL    HW256387   2.850   7.808   9.061 -2.9282 -2.3140  1.7912
18316SOL     OW56388   4.778   2.870   6.888 -0.1636 -0.0648  0.1560
18316SOL    HW156389   4.804   2.917   6.968 -1.3724 -0.3334  0.7309
18316SOL    HW256390   4.861   2.840   6.850  0.3864 -1.1947  2.1003
18317SOL     OW56391   0.778   4.402   2.391 -0.1396 -0.1107  0.2165
18317SOL    HW156392   0.760   4.416   2.484  0.7137 -2.2041  0.7549
18317SOL    HW256393   0.728   4.324   2.369  1.2821 -0.8496 -0.5105
18318SOL     OW56394   7.977   0.704   6.250  0.0615 -0.2406  0.3532
18318SOL    HW156395   8.066   0.714   6.215 -0.0655  2.2672  0.5628
18318SOL    HW256396   7.983   0.628   6.308  1.6053 -1.2022 -0.9839
18319SOL     OW56397   5.776   0.415   3.488  0.0355  0.0508  0.4127
18319SOL    HW156398   5.709   0.361   3.446  1.1027  1.1145 -2.9696
18319SOL    HW256399   5.856   0.396   3.439  1.9989 -0.0889  3.3802
18320SOL     OW56400   7.681   1.557   4.149  0.1197 -0.0488  0.0998
18320SOL    HW156401   7.643   1.642   4.125 -0.0486 -0.4614 -1.1641
18320SOL    HW256402   7.775   1.570   4.138  0.5351  1.1207  3.6938
18321SOL     OW56403   0.076   3.656  11.931  0.1070  0.0800 -0.3515
18321SOL    HW156404   0.122   3.595  11.872 -0.9982 -0.9644 -0.1830
18321SOL    HW256405   0.104   3.743  11.902 -0.2250 -0.4094 -2.2859
18322SOL     OW56406   3.355   5.331   8.210  0.2333 -0.5189  0.6572
18322SOL    HW156407   3.435   5.280   8.215  1.5150  1.1733 -1.0781
18322SOL    HW256408   3.352   5.363   8.120 -0.4834  2.4015  1.6113
18323SOL     OW56409   1.506   6.615   4.663 -0.3269 -0.0537 -0.2568
18323SOL    HW156410   1.431   6.571   4.624 -0.5950 -0.0022  0.1979
18323SOL    HW256411   1.564   6.545   4.691 -0.9140 -0.1433  0.7878
18324SOL     OW56412   0.888   5.921   2.593 -0.0101  0.4722  0.1080
18324SOL    HW156413   0.944   5.977   2.647 -0.2127  0.4734  0.3194
18324SOL    HW256414   0.824   5.885   2.654  1.5359 -1.9237  0.4994
18325SOL     OW56415   6.810   7.672   5.796 -0.2705 -0.1992  0.0655
18325SOL    HW156416   6.892   7.624   5.804  0.6684  1.2447 -0.3344
18325SOL    HW256417   6.829   7.741   5.731 -1.2252  1.3120  1.3129
18326SOL     OW56418   0.275   6.039   9.923  0.4267  0.3677  0.2537
18326SOL    HW156419   0.238   6.127   9.933  0.7219  0.8860 -2.5265
18326SOL    HW256420   0.210   5.981   9.963  0.1059  1.7792  1.8948
18327SOL     OW56421   2.002   2.106   5.116 -0.7549 -0.2447  0.3237
18327SOL    HW156422   1.993   2.028   5.171 -0.9843 -1.1722 -0.9877
18327SOL    HW256423   2.040   2.073   5.034  0.2180  1.2081  0.1593
18328SOL     OW56424   2.915   3.666   7.557 -0.4006  0.0316  0.2272
18328SOL    HW156425   2.976   3.671   7.631  0.8504  1.4065 -0.8219
18328SOL    HW256426   2.837   3.714   7.587 -0.3167 -0.3000  0.9989
18329SOL     OW56427   7.075   7.557   0.112 -0.6085 -0.8380  0.0654
18329SOL    HW156428   7.157   7.543   0.066 -0.7966 -0.2100 -0.4818
18329SOL    HW256429   7.028   7.474   0.105  0.0117 -1.2354  0.4775
18330SOL     OW56430   4.319   5.661  12.191 -0.8430 -0.0345  0.4901
18330SOL    HW156431   4.402   5.690  12.154  0.5423 -2.8705  1.0801
18330SOL    HW256432   4.262   5.738  12.186  1.4022  1.6578 -1.0708
18331SOL     OW56433   4.192   7.534   4.411 -0.1054 -0.2356 -0.6550
18331SOL    HW156434   4.117   7.572   4.456 -1.1674 -0.1150 -2.4646
18331SOL    HW256435   4.216   7.457   4.464 -0.9425  0.2090  0.3970
18332SOL     OW56436   0.672   4.712   5.221  0.6310 -0.7643 -0.9970
18332SOL    HW156437   0.627   4.755   5.148  1.2669 -0.2224 -1.0759
18332SOL    HW256438   0.681   4.621   5.194 -0.2924 -0.8530 -1.0369
18333SOL     OW56439   7.677   6.520   7.790 -0.2574  0.1501  0.3879
18333SOL    HW156440   7.708   6.445   7.842  0.4319  0.4589  0.4312
18333SOL    HW256441   7.661   6.588   7.855 -2.9125 -0.5530  0.6261
18334SOL     OW56442   1.604   7.728   7.248 -0.1235 -0.3239  0.1346
18334SOL    HW156443   1.536   7.783   7.209 -0.5407 -0.0068  1.2584
18334SOL    HW256444   1.593   7.643   7.206 -2.0144 -0.6133  1.1136
18335SOL     OW56445   6.861   3.584   1.443 -0.5606 -0.3879  0.0879
18335SOL    HW156446   6.852   3.657   1.505  0.5045 -1.3839  1.4771
18335SOL    HW256447   6.943   3.542   1.467 -0.4907 -1.2810 -1.5480
18336SOL     OW56448   6.326   4.141   5.853 -0.5065  0.5668  0.0573
18336SOL    HW156449   6.252   4.098   5.896 -1.0358  1.9493  0.6239
18336SOL    HW256450   6.386   4.162   5.925 -0.6090  1.3857 -0.0781
18337SOL     OW56451   1.353   2.269   4.889 -0.7287 -0.3422 -0.0692
18337SOL    HW156452   1.355   2.298   4.798  2.1188 -4.2763 -1.5410
18337SOL    HW256453   1.268   2.226   4.899 -1.5283  1.0737 -0.3898
18338SOL     OW56454   6.430   2.630   4.412  0.6997 -0.1252 -0.1181
18338SOL    HW156455   6.371   2.578   4.467  1.0996 -0.1842  0.2601
18338SOL    HW256456   6.474   2.689   4.473  0.6625  0.2675 -0.4685
18339SOL     OW56457   4.348   7.840   3.877  0.4056  0.5424 -0.5632
18339SOL    HW156458   4.339   7.866   3.785 -0.9765  2.9698  0.1649
18339SOL    HW256459   4.292   7.763   3.886  2.1810 -1.0493 -2.1414
18340SOL     OW56460   4.856   0.701  11.558  0.0303 -0.0763  0.7473
18340SOL    HW156461   4.903   0.642  11.617 -0.3721 -0.3500  0.7960
18340SOL    HW256462   4.817   0.767  11.616  1.5500  1.0150  0.5946
18341SOL     OW56463   3.313   1.333   0.726  0.6156  0.8158 -0.0661
18341SOL    HW156464   3.226   1.293   0.731  0.7534  0.4259 -0.6710
18341SOL    HW256465   3.296   1.426   0.714  0.2862  0.8303  0.4695
18342SOL     OW56466   0.416   7.943   1.106  0.3551  0.1055  0.2633
18342SOL    HW156467   0.482   7.893   1.059  0.8373 -0.0357  1.0697
18342SOL    HW256468   0.340   7.886   1.110  0.5582 -0.1633  0.2881
18343SOL     OW56469   6.316   2.836   9.139  0.2224 -0.8469 -0.7619
18343SOL    HW156470   6.304   2.861   9.231  1.9953 -0.8633 -0.4746
18343SOL    HW256471   6.230   2.809   9.109 -0.3466 -1.0572  0.9686
18344SOL     OW56472   0.387   3.908   2.576  0.0277 -0.3569 -0.1223
18344SOL    HW156473   0.306   3.932   2.621  1.6962  3.0395  1.4665
18344SOL    HW256474   0.376   3.944   2.488  0.7219  2.6223  0.9003
18345SOL     OW56475   2.705   0.560   0.544 -0.5707 -0.2503  0.3721
18345SOL    HW156476   2.704   0.572   0.449 -2.2409 -1.8796  0.1320
18345SOL    HW256477   2.614   0.573   0.571 -0.1630 -0.0681  1.7256
18346SOL     OW56478   1.128   4.462   4.510 -0.0856 -0.2855  0.3335
18346SOL    HW156479   1.046   4.439   4.554  0.5060 -0.7850  1.2028
18346SOL    HW256480   1.192   4.400   4.544  0.7753  0.4259  0.0573
18347SOL     OW56481   2.887   5.735   8.451  0.0330 -0.2549 -0.1263
18347SOL    HW156482   2.813   5.791   8.428  0.3659 -0.6583 -2.4550
18347SOL    HW256483   2.848   5.663   8.500 -0.8365  0.4580  0.2686
18348SOL     OW56484   7.876   4.571   2.370  0.0312 -0.1407 -0.6036
18348SOL    HW156485   7.868   4.539   2.460  0.1718 -0.5248 -0.7236
18348SOL    HW256486   7.845   4.661   2.374  2.5089  0.7586  0.3729
18349SOL     OW56487   5.696   4.719   0.862  0.3443 -0.1148  0.0589
18349SOL    HW156488   5.639   4.786   0.900 -0.8783 -1.2405  0.2644
18349SOL    HW256489   5.776   4.722   0.915  1.6298  3.2302 -1.7796
18350SOL     OW56490   4.613   1.763   3.507 -0.1776  0.2111  0.1035
18350SOL    HW156491   4.571   1.689   3.552 -1.0562  2.9420  4.3306
18350SOL    HW256492   4.706   1.740   3.506 -0.4633 -1.1219  0.9170
18351SOL     OW56493   0.592   6.120  12.433 -0.5913 -0.5551  0.8088
18351SOL    HW156494   0.680   6.131  12.470 -0.0027  0.3929 -0.7998
18351SOL    HW256495   0.601   6.049  12.370 -0.8537 -0.0953  0.2493
18352SOL     OW56496   1.099   1.230   2.605  0.4251 -0.0312  0.4268
18352SOL    HW156497   1.095   1.154   2.663  0.2938  0.7170  1.4216
18352SOL    HW256498   1.009   1.262   2.600  0.4864  0.0853  0.0508
18353SOL     OW56499   5.608   1.628   2.324  0.7223 -0.3021  0.3716
18353SOL    HW156500   5.641   1.606   2.237  0.0201  0.3762 -0.0804
18353SOL    HW256501   5.670   1.587   2.384  1.4306 -0.4643 -0.4487
18354SOL     OW56502   0.585   6.186  12.125  0.2060 -0.1242  0.1957
18354SOL    HW156503   0.596   6.209  12.217  1.1731  3.0101 -0.5900
18354SOL    HW256504   0.498   6.220  12.103  0.7336  0.8214 -0.4664
18355SOL     OW56505   5.676   7.229   4.867  0.2258 -0.3041  0.1688
18355SOL    HW156506   5.710   7.263   4.950  0.2838  0.1793 -0.0497
18355SOL    HW256507   5.728   7.274   4.800 -0.2673 -0.2084 -0.1478
18356SOL     OW56508   2.678   2.628   6.812 -0.4794 -0.4875 -0.0469
18356SOL    HW156509   2.675   2.692   6.742  1.3717 -1.6890 -1.2952
18356SOL    HW256510   2.635   2.550   6.775 -1.9606 -0.2977  1.1573
18357SOL     OW56511   2.465   4.322   8.519 -0.0643  0.3672 -0.6156
18357SOL    HW156512   2.488   4.316   8.426  0.3699  0.5065 -0.5219
18357SOL    HW256513   2.446   4.415   8.532 -1.1255  0.1907 -0.7859
18358SOL     OW56514   7.977   5.295   7.976  0.1898  0.1324 -0.3298
18358SOL    HW156515   8.058   5.249   7.954 -0.9618 -1.3885 -1.6359
18358SOL    HW256516   7.910   5.252   7.924 -1.2179  2.4600 -0.5998
18359SOL     OW56517   3.678   3.987   0.121  0.1004 -0.0390 -0.0494
18359SOL    HW156518   3.662   3.944   0.205 -1.9934  0.4513 -0.1551
18359SOL    HW256519   3.671   4.080   0.140  3.7967  0.3728  0.0036
18360SOL     OW56520   4.946   1.079   0.751 -0.5613 -0.0800 -0.3783
18360SOL    HW156521   5.020   1.116   0.703  1.1713 -3.5781 -0.7481
18360SOL    HW256522   4.870   1.097   0.695  0.7246 -0.1910 -2.2664
18361SOL     OW56523   7.777   3.635   8.155  0.0972 -0.5046  0.4733
18361SOL    HW156524   7.847   3.586   8.113 -0.9727 -2.2501  0.6575
18361SOL    HW256525   7.711   3.570   8.177 -1.1935  0.9573  1.1428
18362SOL     OW56526   1.703   0.594  11.683 -0.0200  0.0170  0.1122
18362SOL    HW156527   1.764   0.651  11.635  0.9305 -1.0198  0.0605
18362SOL    HW256528   1.623   0.646  11.689 -0.8079 -0.3126 -4.0468
18363SOL     OW56529   5.983   3.935   0.660  0.0208  0.1333  0.5900
18363SOL    HW156530   5.904   3.947   0.608 -0.5268 -0.7454  1.1965
18363SOL    HW256531   6.013   4.024   0.679 -1.2871  0.5023  1.0384
18364SOL     OW56532   7.105   2.137   2.976  0.2711  0.4313  0.4610
18364SOL    HW156533   7.177   2.169   3.031  0.5017  1.8113 -0.5726
18364SOL    HW256534   7.124   2.173   2.889 -0.9037 -0.4028 -0.1741
18365SOL     OW56535   6.952   1.762   3.060  0.2331  0.3050  0.0276
18365SOL    HW156536   6.889   1.797   3.122  0.7102  0.0001  0.7068
18365SOL    HW256537   6.905   1.692   3.014 -0.2500  0.8102 -0.2585
18366SOL     OW56538   1.224   6.803   4.161  0.1239  0.5553  0.1993
18366SOL    HW156539   1.216   6.893   4.130  0.3406  0.3294 -0.5069
18366SOL    HW256540   1.306   6.771   4.124  1.1488  0.7330  2.1501
18367SOL     OW56541   7.187   3.370   5.891 -0.2798  0.0688  0.4834
18367SOL    HW156542   7.233   3.448   5.921 -2.1578  1.2638  0.4369
18367SOL    HW256543   7.152   3.330   5.970  1.3189 -1.2204  0.5917
18368SOL     OW56544   3.554   2.706   4.855 -0.2359  0.4150  0.1402
18368SOL    HW156545   3.596   2.655   4.785 -2.2525  1.0986 -1.6778
18368SOL    HW256546   3.585   2.796   4.840  1.4363  0.2026  1.8749
18369SOL     OW56547   5.566   1.290   6.893  0.4270  0.0199 -0.1850
18369SOL    HW156548   5.544   1.382   6.874  0.1045 -0.1998 -0.8991
18369SOL    HW256549   5.576   1.288   6.988 -0.6813  0.5602 -0.0363
18370SOL     OW56550   1.055   2.000   6.574 -0.2441  0.1182 -0.0376
18370SOL    HW156551   0.960   2.002   6.562 -0.2701  0.7737  0.2544
18370SOL    HW256552   1.068   2.026   6.665  0.2615  0.8672 -0.3194
18371SOL     OW56553   3.218   6.443   7.929 -0.5124  0.8154  0.2982
18371SOL    HW156554   3.251   6.373   7.986 -1.1916  0.4120  0.2077
18371SOL    HW256555   3.294   6.500   7.915  0.0156  0.1815  0.5022
18372SOL     OW56556   6.495   6.996  12.140 -0.1410  0.3685 -0.0369
18372SOL    HW156557   6.554   7.017  12.212  0.4005  0.1815 -0.4188
18372SOL    HW256558   6.552   6.985  12.064 -0.4636 -1.4518 -0.0802
18373SOL     OW56559   5.653   4.070  10.512 -0.0393  0.1108  0.7745
18373SOL    HW156560   5.688   4.157  10.531  0.3811  0.2551 -0.5307
18373SOL    HW256561   5.630   4.073  10.419 -3.2397 -0.1037  1.4662
18374SOL     OW56562   4.181   2.106   4.598 -0.3656 -0.2809 -0.1210
18374SOL    HW156563   4.243   2.166   4.639  0.4365 -0.2730 -1.3123
18374SOL    HW256564   4.119   2.084   4.668  1.6311 -1.1952  1.4643
18375SOL     OW56565   0.191   6.695   2.052  0.1444  0.0150  0.0265
18375SOL    HW156566   0.160   6.635   2.120  0.7309  0.3700  0.6178
18375SOL    HW256567   0.216   6.638   1.980 -0.0608 -0.3998  0.2773
18376SOL     OW56568   5.600   1.385   5.534 -0.1327  0.2484 -0.0303
18376SOL    HW156569   5.659   1.430   5.594 -0.5750 -1.0007  1.4256
18376SOL    HW256570   5.652   1.312   5.500 -1.1710 -1.8721  2.5426
18377SOL     OW56571   4.323   1.994  10.525 -0.0320  0.2518 -0.2048
18377SOL    HW156572   4.325   1.899  10.539 -0.1308  0.2994  0.1515
18377SOL    HW256573   4.401   2.026  10.570 -0.4339  0.4250  0.3841
18378SOL     OW56574   3.632   7.032   6.479 -0.1122  0.1288 -0.1704
18378SOL    HW156575   3.624   6.986   6.562  1.1841  0.4187  0.1421
18378SOL    HW256576   3.589   6.975   6.415 -2.6108  0.6656  0.9067
18379SOL     OW56577   3.919   0.367   0.416  0.1418  0.7926  0.3341
18379SOL    HW156578   4.008   0.375   0.380  0.4490 -0.8140  0.6602
18379SOL    HW256579   3.879   0.453   0.400  1.3843  1.1969 -0.8066
18380SOL     OW56580   7.713   0.047   6.368 -0.5677 -0.4447 -0.2558
18380SOL    HW156581   7.638   0.026   6.313 -0.8688 -0.5495  0.1886
18380SOL    HW256582   7.696   0.001   6.450 -1.0362  1.1707  0.5983
18381SOL     OW56583   3.166   2.355   9.627 -0.3555 -0.2863 -0.4935
18381SOL    HW156584   3.076   2.387   9.638 -0.8377 -1.4453 -0.8987
18381SOL    HW256585   3.175   2.343   9.532  0.6421  0.9133 -0.5790
18382SOL     OW56586   1.171   7.641   7.258 -0.4239  0.9294 -0.0374
18382SOL    HW156587   1.238   7.709   7.250  0.5879 -0.1586 -1.4277
18382SOL    HW256588   1.111   7.658   7.186  0.1660  0.0404 -0.7632
18383SOL     OW56589   1.011   7.911   4.417  0.0369 -0.3943  0.0781
18383SOL    HW156590   1.003   7.968   4.493  1.7691  0.6101 -0.4282
18383SOL    HW256591   1.093   7.938   4.375 -0.0123 -2.0420 -1.2103
18384SOL     OW56592   0.029   4.370   8.498 -0.5720  0.0646  0.0753
18384SOL    HW156593   0.037   4.397   8.406  0.3926  0.6699  0.3244
18384SOL    HW256594   0.001   4.449   8.544 -3.2312 -0.7502  0.0174
18385SOL     OW56595   5.889   6.316   3.325 -0.1248  0.5181 -0.4241
18385SOL    HW156596   5.864   6.243   3.269 -0.8509  2.2118 -2.4450
18385SOL    HW256597   5.854   6.294   3.411  0.6194 -1.9579 -0.6760
18386SOL     OW56598   4.523   5.786   5.026  0.2122  0.9234  0.4573
18386SOL    HW156599   4.581   5.838   5.082  0.6897 -0.6108  1.4592
18386SOL    HW256600   4.469   5.736   5.087  0.6256 -0.6729 -0.4137
18387SOL     OW56601   0.570   0.876  11.717  0.5269 -0.3405  0.3196
18387SOL    HW156602   0.478   0.903  11.727  0.8364  0.8341  0.1616
18387SOL    HW256603   0.609   0.944  11.663  0.8695 -2.2214 -1.9754
18388SOL     OW56604   0.028   5.502   4.716  0.5441 -0.1887 -0.0534
18388SOL    HW156605   0.100   5.442   4.698  1.8733  1.2869  0.0901
18388SOL    HW256606   0.062   5.589   4.693 -1.9564  0.3734 -2.1433
18389SOL     OW56607   0.506   2.381  11.307  0.3981  0.0442  0.4727
18389SOL    HW156608   0.465   2.361  11.391  0.4342  1.7450  0.9432
18389SOL    HW256609   0.582   2.435  11.330  1.9178 -1.5673 -0.5074
18390SOL     OW56610   2.042   4.216   8.058 -0.1200 -0.2106  0.3633
18390SOL    HW156611   1.982   4.184   8.126 -0.4677 -1.1327 -0.3550
18390SOL    HW256612   2.105   4.270   8.105 -1.3226  0.5237  1.1909
18391SOL     OW56613   6.981   0.541   2.996  0.7494 -0.5585  0.5313
18391SOL    HW156614   6.956   0.474   2.932  2.1299 -1.3971  0.8336
18391SOL    HW256615   6.915   0.609   2.986  0.2725 -1.2009 -0.9730
18392SOL     OW56616   4.126   5.328   9.171  0.6441  0.0846 -0.5568
18392SOL    HW156617   4.044   5.279   9.160 -0.3211  1.6759 -0.7193
18392SOL    HW256618   4.190   5.278   9.121  0.1143 -1.9251  0.6472
18393SOL     OW56619   1.522   2.584   1.416 -0.0944  0.0945  0.5047
18393SOL    HW156620   1.457   2.529   1.371  0.9213 -1.1941  0.5335
18393SOL    HW256621   1.499   2.578   1.508  1.2362 -2.1094  0.7674
18394SOL     OW56622   6.843   4.515   0.977 -0.5113  0.6754  0.2991
18394SOL    HW156623   6.845   4.510   1.073  0.3936 -1.6706  0.2231
18394SOL    HW256624   6.931   4.489   0.950 -0.5967  1.8136 -1.1976
18395SOL     OW56625   2.001   6.750   6.325  0.4426  0.3280  0.6974
18395SOL    HW156626   2.078   6.765   6.269 -1.2397  0.8012 -1.6366
18395SOL    HW256627   2.024   6.672   6.376  1.9961 -0.3276 -0.8757
18396SOL     OW56628   4.278   0.672  11.014  0.1731 -0.0985  0.1449
18396SOL    HW156629   4.344   0.602  11.020  0.0593 -0.1666  0.6943
18396SOL    HW256630   4.302   0.721  10.935  0.5771 -0.4338  0.0548
18397SOL     OW56631   5.949   7.141   8.961  0.1902 -0.5269  0.0505
18397SOL    HW156632   6.025   7.155   8.905  0.2518  1.7835  0.5821
18397SOL    HW256633   5.976   7.177   9.046 -1.3671  0.0851  0.3222
18398SOL     OW56634   2.845   4.310   4.199 -0.2776  0.5460 -0.2772
18398SOL    HW156635   2.881   4.230   4.237  1.8838 -0.2291 -3.5452
18398SOL    HW256636   2.878   4.380   4.256 -1.0136 -0.7323  1.8166
18399SOL     OW56637   4.359   6.305   5.969  0.3131  0.4592  0.1557
18399SOL    HW156638   4.313   6.379   6.009  1.4243  1.7383 -0.8132
18399SOL    HW256639   4.409   6.267   6.041  1.4312  2.0443  0.2853
18400SOL     OW56640   1.803   5.647   2.246 -0.1592  0.4036 -0.1275
18400SOL    HW156641   1.805   5.634   2.340  0.8208  0.2193 -0.1591
18400SOL    HW256642   1.812   5.742   2.234  0.3396  0.3714 -0.0399
18401SOL     OW56643   6.331   5.289   4.769 -0.3541  0.9483 -0.5076
18401SOL    HW156644   6.407   5.317   4.820 -0.8459 -2.2005  2.3140
18401SOL    HW256645   6.260   5.346   4.798 -0.3281  0.0273  1.5125
18402SOL     OW56646   6.413   7.337   6.968  0.3780 -0.1653 -0.1181
18402SOL    HW156647   6.407   7.391   6.889  1.4706 -0.3855 -0.3668
18402SOL    HW256648   6.424   7.247   6.935  1.0010 -0.2398  0.2755
18403SOL     OW56649   5.821   5.263   5.393 -0.2093 -0.5543 -0.3215
18403SOL    HW156650   5.866   5.208   5.457 -1.2504 -1.5455 -0.4228
18403SOL    HW256651   5.794   5.341   5.443  0.8643 -0.3199 -0.0768
18404SOL     OW56652   2.029   2.072  10.950 -0.6070 -0.8363 -0.0092
18404SOL    HW156653   2.035   2.079  10.855  2.6144 -0.3477  0.1287
18404SOL    HW256654   1.957   2.131  10.973 -0.4328  0.2740 -2.0361
18405SOL     OW56655   1.816   2.478   1.348 -0.3356  0.1756  0.3793
18405SOL    HW156656   1.768   2.553   1.383 -0.2665  0.9088 -0.9906
18405SOL    HW256657   1.747   2.417   1.320 -0.4133  0.1448  0.6358
18406SOL     OW56658   3.362   6.312   7.715  0.4331  0.0636 -1.1883
18406SOL    HW156659   3.367   6.340   7.806 -1.3842  1.9908 -1.6163
18406SOL    HW256660   3.279   6.265   7.709 -0.0245  0.9478 -2.0705
18407SOL     OW56661   1.250   7.128   1.150  0.7495  0.3305 -0.0284
18407SOL    HW156662   1.340   7.121   1.181  0.4133  0.4259  1.0141
18407SOL    HW256663   1.238   7.053   1.091  1.4618  0.2489 -0.0729
18408SOL     OW56664   0.459   2.860   8.278 -0.0218  0.2558  0.1545
18408SOL    HW156665   0.375   2.816   8.287 -0.3902  1.0621  0.8290
18408SOL    HW256666   0.449   2.914   8.200 -1.1527  2.4348  1.6871
18409SOL     OW56667   5.519   4.349   8.020 -0.3608  0.7598 -0.1300
18409SOL    HW156668   5.566   4.331   8.101 -0.7066 -1.8645 -0.4432
18409SOL    HW256669   5.438   4.393   8.048 -0.8771 -0.8772  1.0712
18410SOL     OW56670   0.356   4.033  12.401 -0.7442  0.2094 -0.1292
18410SOL    HW156671   0.318   3.948  12.379 -0.6462  0.1375 -0.0220
18410SOL    HW256672   0.448   4.026  12.374 -1.0917  0.8260 -1.5978
18411SOL     OW56673   7.252   4.877   1.748  0.1376  0.4200  0.0195
18411SOL    HW156674   7.338   4.848   1.777  0.2578  0.7202 -0.0307
18411SOL    HW256675   7.190   4.830   1.804  0.3263  0.0302 -0.0980
18412SOL     OW56676   3.802   0.952   0.233  0.8065  0.0267  0.0703
18412SOL    HW156677   3.781   0.910   0.149  0.9880  0.4049 -0.1698
18412SOL    HW256678   3.888   0.918   0.255  1.0088  0.3579 -0.1874
18413SOL     OW56679   4.774   0.145   4.860 -0.0045  0.4464  0.4387
18413SOL    HW156680   4.756   0.239   4.864  0.2933  0.4754  1.9669
18413SOL    HW256681   4.865   0.137   4.890  1.3041 -0.0454 -3.1375
18414SOL     OW56682   5.611   5.558   7.572  0.1112  0.1835 -0.2051
18414SOL    HW156683   5.597   5.467   7.545 -1.7624 -0.6124  2.9252
18414SOL    HW256684   5.534   5.605   7.542  0.4282  0.4579 -0.6072
18415SOL     OW56685   2.670   2.541  12.341  0.1500 -0.0751 -0.2143
18415SOL    HW156686   2.691   2.559  12.249 -1.1530 -2.5582 -1.1046
18415SOL    HW256687   2.622   2.618  12.370  0.9637  0.9506 -1.4645
18416SOL     OW56688   7.216   7.329   1.919 -0.6018 -0.3791  0.0450
18416SOL    HW156689   7.287   7.313   1.857 -0.6538  1.5571 -0.5591
18416SOL    HW256690   7.136   7.313   1.869 -0.6602  1.8181 -0.6333
18417SOL     OW56691   3.164   5.550   5.054  0.3274  0.4520 -0.0064
18417SOL    HW156692   3.202   5.497   5.124  0.1347 -0.4910 -0.5946
18417SOL    HW256693   3.146   5.635   5.095  1.9636  0.5589  0.5993
18418SOL     OW56694   2.348   1.479   1.935 -0.1379 -0.0638  0.4645
18418SOL    HW156695   2.294   1.457   2.010 -1.6717 -0.2407 -0.6508
18418SOL    HW256696   2.297   1.543   1.886  1.5988  1.3837  0.4436
18419SOL     OW56697   2.535   3.790   0.721  0.3207 -0.0893  0.0677
18419SOL    HW156698   2.621   3.759   0.750  0.1690 -1.9353 -1.2436
18419SOL    HW256699   2.474   3.753   0.785  0.4777  1.6880  1.3277
18420SOL     OW56700   5.767   6.181   3.124 -0.1662 -0.2388 -0.4536
18420SOL    HW156701   5.768   6.198   3.030 -0.4815 -0.6169 -0.5260
18420SOL    HW256702   5.800   6.092   3.133  1.1349  0.2511 -0.0996
18421SOL     OW56703   1.243   2.747   8.864  0.2276  0.1531  0.5835
18421SOL    HW156704   1.291   2.752   8.946  1.5914  0.4372 -0.1969
18421SOL    HW256705   1.255   2.833   8.824 -0.2876 -0.0320  0.0203
18422SOL     OW56706   6.469   4.079   7.664 -0.1924  0.6638  0.1649
18422SOL    HW156707   6.529   4.018   7.707 -1.0702 -0.2993  0.0629
18422SOL    HW256708   6.448   4.144   7.731 -0.2493  0.1161  0.6876
18423SOL     OW56709   4.410   7.979   0.543  0.0306 -0.2124 -0.1874
18423SOL    HW156710   4.481   7.946   0.487  1.7475 -0.0003  1.7665
18423SOL    HW256711   4.418   8.074   0.537 -0.5447 -0.1800 -0.4906
18424SOL     OW56712   4.658   2.270  10.880  0.5229 -0.1149  0.3116
18424SOL    HW156713   4.644   2.213  10.956 -0.0163 -0.3556  0.0414
18424SOL    HW256714   4.606   2.349  10.900  0.6730 -0.0253  0.3520
18425SOL     OW56715   2.138   2.637  11.445 -0.5785 -0.0667  0.0208
18425SOL    HW156716   2.167   2.648  11.355 -0.4269 -0.5640  0.0045
18425SOL    HW256717   2.201   2.576  11.484 -1.2872 -0.7449  0.1318
18426SOL     OW56718   3.075   1.459   0.223  0.2003 -0.0276  0.1559
18426SOL    HW156719   3.122   1.376   0.235 -0.6762 -0.6241 -0.4426
18426SOL    HW256720   2.983   1.435   0.227 -0.0852  1.1227  1.2774
18427SOL     OW56721   1.662   6.819   2.055 -0.3837  0.5762  0.0411
18427SOL    HW156722   1.607   6.758   2.007 -0.5465  0.8370 -0.1024
18427SOL    HW256723   1.743   6.771   2.071 -0.6891  0.1530  0.3470
18428SOL     OW56724   4.198   7.385  11.333 -0.1641  0.4488  0.1624
18428SOL    HW156725   4.118   7.352  11.375  0.3436 -0.7402  0.2269
18428SOL    HW256726   4.197   7.479  11.350 -1.2148  0.3512  0.7276
18429SOL     OW56727   7.912   3.090   3.065 -0.1974  0.0707 -0.5494
18429SOL    HW156728   7.837   3.111   3.120 -0.5540 -0.5861 -0.7807
18429SOL    HW256729   7.910   3.155   2.995 -0.4259  0.1879 -0.4338
18430SOL     OW56730   7.247   2.895   4.496  0.1671  0.5772  0.8935
18430SOL    HW156731   7.226   2.848   4.577 -0.6572 -1.0789 -0.2484
18430SOL    HW256732   7.313   2.841   4.453  1.5148  2.0625  0.9722
18431SOL     OW56733   3.890   7.796  11.870 -0.0438  0.1359 -0.6232
18431SOL    HW156734   3.801   7.828  11.853 -0.8280 -1.6259 -0.1095
18431SOL    HW256735   3.909   7.737  11.798  1.5755  1.9935 -1.8213
18432SOL     OW56736   3.761   7.868   0.055  0.0292  0.0655  0.3475
18432SOL    HW156737   3.813   7.945   0.033  0.9162  0.0652  2.2120
18432SOL    HW256738   3.807   7.795   0.014  2.1072 -0.0406  2.6064
18433SOL     OW56739   4.236   0.764   3.564 -0.3944 -0.4044 -0.6044
18433SOL    HW156740   4.288   0.684   3.566  0.6250  0.2258 -1.3663
18433SOL    HW256741   4.224   0.786   3.656 -0.9291 -1.5710 -0.3691
18434SOL     OW56742   5.027   4.976   9.335  0.1321 -0.4934 -0.3784
18434SOL    HW156743   5.089   5.033   9.290 -0.1566 -0.3840 -0.6418
18434SOL    HW256744   4.996   5.027   9.409  1.8123 -1.2545  0.8997
18435SOL     OW56745   4.021   1.306   4.328  0.4769  0.3310  0.4696
18435SOL    HW156746   4.103   1.286   4.374 -0.9274 -1.7065  2.3586
18435SOL    HW256747   4.041   1.382   4.274  3.4942  0.1249  1.1139
18436SOL     OW56748   1.845   1.212   4.472  0.3605  0.5353 -0.2116
18436SOL    HW156749   1.779   1.193   4.405 -0.3688  0.6817  0.4606
18436SOL    HW256750   1.923   1.166   4.441 -0.6304 -1.4058  0.0467
18437SOL     OW56751   5.519   6.875   9.391  0.3724  0.3249  0.5977
18437SOL    HW156752   5.604   6.906   9.360  0.9196 -0.3093  1.4428
18437SOL    HW256753   5.533   6.850   9.482 -0.3913 -1.0410  0.3728
18438SOL     OW56754   3.489   7.447  10.084  0.2438  0.2931  0.5007
18438SOL    HW156755   3.395   7.465  10.088  0.4206  1.1639  1.0523
18438SOL    HW256756   3.507   7.443   9.990  0.0252  2.3976  0.3028
18439SOL     OW56757   4.240   3.800   0.477 -0.2135  0.1704  0.4912
18439SOL    HW156758   4.313   3.765   0.527 -0.2506 -0.3809  0.1653
18439SOL    HW256759   4.216   3.730   0.417 -0.2523  0.7759 -0.2123
18440SOL     OW56760   2.300   7.943   9.694  0.1775 -0.1041 -0.2877
18440SOL    HW156761   2.332   8.026   9.658 -0.2596  0.8195  1.3480
18440SOL    HW256762   2.211   7.935   9.658  0.5701 -0.3845 -1.2330
18441SOL     OW56763   7.575   5.353   6.352  0.4374 -0.1587  0.3692
18441SOL    HW156764   7.485   5.373   6.327  0.9567  2.7808  0.5034
18441SOL    HW256765   7.625   5.360   6.270  0.9113  1.0935  0.7369
18442SOL     OW56766   1.758   5.493   3.884 -0.0116 -0.4825  0.5451
18442SOL    HW156767   1.799   5.558   3.942  1.0182 -0.3932 -0.2608
18442SOL    HW256768   1.832   5.452   3.838 -0.4845 -3.2881  2.0845
18443SOL     OW56769   6.565   0.623   0.212 -0.1525 -0.3151  0.8351
18443SOL    HW156770   6.649   0.663   0.189  0.7474 -2.2967  0.4674
18443SOL    HW256771   6.525   0.684   0.274  0.9776  1.2818  0.0643
18444SOL     OW56772   2.776   0.959   2.032  0.8665 -0.2325 -0.0016
18444SOL    HW156773   2.776   0.950   2.127 -1.6852 -0.1095  0.0742
18444SOL    HW256774   2.807   1.049   2.017 -0.7207  0.5087  0.8848
18445SOL     OW56775   0.559   2.471   5.283  0.2197 -0.0393  0.1155
18445SOL    HW156776   0.603   2.524   5.216  0.0639 -0.8328 -0.6418
18445SOL    HW256777   0.578   2.381   5.257 -0.9137 -0.3747  0.4180
18446SOL     OW56778   0.303   2.998   2.087  0.0601  0.5667 -0.1958
18446SOL    HW156779   0.337   2.933   2.149 -0.8160  0.0154 -0.2860
18446SOL    HW256780   0.335   3.081   2.122  1.2292  0.1035 -0.0973
18447SOL     OW56781   6.803   1.602   2.908  0.6565  0.2106 -0.5451
18447SOL    HW156782   6.840   1.517   2.934 -0.6038  0.0346  0.8287
18447SOL    HW256783   6.766   1.586   2.821 -0.7499 -1.0681  0.2390
18448SOL     OW56784   5.029   7.280  10.153 -0.8818  0.1488 -0.3007
18448SOL    HW156785   4.983   7.339  10.213 -0.0063  0.1844  0.3415
18448SOL    HW256786   4.958   7.233  10.109 -1.5753  1.0694 -0.2218
18449SOL     OW56787   2.655   1.883   5.698 -0.3853 -0.3499 -0.0535
18449SOL    HW156788   2.561   1.868   5.689 -0.0899 -2.1296 -0.4869
18449SOL    HW256789   2.677   1.845   5.783 -0.4331  2.2728  1.2252
18450SOL     OW56790   3.473   2.851   7.585 -0.4933  0.5454 -0.2768
18450SOL    HW156791   3.410   2.827   7.653  1.0283 -0.6195  0.7972
18450SOL    HW256792   3.499   2.940   7.607 -0.5486  0.4354  0.2425
18451SOL     OW56793   6.934   3.752   5.425 -0.2478 -0.0833  0.3818
18451SOL    HW156794   6.933   3.750   5.521  2.0166 -2.2711  0.4370
18451SOL    HW256795   6.932   3.846   5.403 -0.3203  0.4752  2.5494
18452SOL     OW56796   6.378   1.691   7.537  0.6178 -0.7907 -0.5375
18452SOL    HW156797   6.301   1.735   7.573  1.6012 -1.0593  2.0846
18452SOL    HW256798   6.451   1.721   7.591  2.4886 -0.2990 -3.1216
18453SOL     OW56799   7.665   3.929   9.575 -0.0168  0.5267  0.4639
18453SOL    HW156800   7.739   3.881   9.613  0.1029 -1.3633 -1.9018
18453SOL    HW256801   7.614   3.958   9.650  3.2497  2.2545  2.2309
18454SOL     OW56802   0.729   1.910   6.338 -0.3362 -0.3276 -0.0229
18454SOL    HW156803   0.726   1.925   6.433  1.0124 -0.2472  0.0190
18454SOL    HW256804   0.805   1.854   6.325 -0.6384 -0.5233 -1.0465
18455SOL     OW56805   4.902   0.772   1.990  0.5577 -0.2368 -0.0356
18455SOL    HW156806   4.909   0.865   1.967 -1.4686  0.4318  1.6751
18455SOL    HW256807   4.916   0.771   2.085 -2.6200 -1.1482  0.5277
18456SOL     OW56808   5.368   2.658   7.186  0.1462  0.1132 -0.1781
18456SOL    HW156809   5.370   2.731   7.124  0.6766 -0.7943 -1.2785
18456SOL    HW256810   5.275   2.644   7.204 -0.0091  0.5164 -0.6356
18457SOL     OW56811   3.873   7.374  11.988 -0.2347  0.2710  0.5332
18457SOL    HW156812   3.855   7.361  12.081  0.2480 -1.6277  0.4072
18457SOL    HW256813   3.894   7.287  11.955  0.3773  1.0200 -1.2031
18458SOL     OW56814   5.927   3.410  11.926  0.1236 -0.2489  0.2774
18458SOL    HW156815   5.892   3.460  12.001  0.0721 -0.2819  0.2756
18458SOL    HW256816   6.021   3.405  11.942  0.1128 -0.2547  0.3395
18459SOL     OW56817   7.060   4.832  10.241 -0.0209  0.4619  0.2949
18459SOL    HW156818   7.111   4.840  10.322 -0.9799 -0.5410  1.0304
18459SOL    HW256819   6.977   4.875  10.261 -1.7084 -2.8706  1.1994
18460SOL     OW56820   4.102   1.844   4.730  0.2266 -0.2451 -0.6755
18460SOL    HW156821   4.045   1.767   4.730 -0.6783  0.4136  0.6295
18460SOL    HW256822   4.161   1.830   4.804 -1.4813  1.4086  1.0627
18461SOL     OW56823   7.576   6.294  12.091 -0.3079  0.0658  0.3781
18461SOL    HW156824   7.558   6.200  12.090 -0.5611  0.1187  0.1611
18461SOL    HW256825   7.661   6.301  12.135 -1.6973 -0.0309  3.3531
18462SOL     OW56826   5.335   4.576   7.831  0.0845 -0.2307 -0.1889
18462SOL    HW156827   5.421   4.538   7.810  0.1866 -0.6809  0.9605
18462SOL    HW256828   5.312   4.537   7.915 -0.9683  0.3694 -0.1860
18463SOL     OW56829   6.834   1.646   1.058 -0.8445  0.0483  0.3985
18463SOL    HW156830   6.912   1.628   1.007 -1.2938 -0.9380  0.0431
18463SOL    HW256831   6.861   1.715   1.119  0.2395 -0.1339  0.1460
18464SOL     OW56832   1.146   0.759   5.845  0.0251 -0.7931  0.3558
18464SOL    HW156833   1.146   0.853   5.867 -0.1537 -0.6720 -0.1515
18464SOL    HW256834   1.237   0.738   5.828 -0.0927 -0.3792 -0.8941
18465SOL     OW56835   4.798   5.191   6.818  0.2402  0.2734 -0.3123
18465SOL    HW156836   4.878   5.177   6.869  0.7283 -0.9228 -1.3598
18465SOL    HW256837   4.829   5.208   6.729 -0.6517  0.2190 -0.6460
18466SOL     OW56838   3.173   4.568   1.628  0.0584 -0.3080 -0.0670
18466SOL    HW156839   3.159   4.540   1.718  1.7485 -2.4033 -0.3697
18466SOL    HW256840   3.086   4.584   1.594 -0.5569  2.5555  2.4540
18467SOL     OW56841   3.851   7.012  12.245  0.4191 -0.6097 -0.2864
18467SOL    HW156842   3.869   7.014  12.151  0.3829 -0.7042 -0.2958
18467SOL    HW256843   3.928   7.053  12.285  0.3567 -0.4121 -0.3677
18468SOL     OW56844   5.583   2.589   6.818  0.1292  0.2757 -0.2917
18468SOL    HW156845   5.494   2.588   6.854  0.1445  0.1659 -0.2556
18468SOL    HW256846   5.576   2.642   6.738  0.5170  2.2636  0.9336
18469SOL     OW56847   1.795   4.471   1.052 -0.1998  0.1457  0.0415
18469SOL    HW156848   1.844   4.465   1.133 -0.9814 -1.4481  0.4164
18469SOL    HW256849   1.862   4.469   0.983  0.3200 -2.7582  0.5044
18470SOL     OW56850   7.720   6.253   7.906 -0.4926 -0.2295  0.1346
18470SOL    HW156851   7.676   6.188   7.851  0.0986  0.1001 -0.7619
18470SOL    HW256852   7.696   6.230   7.995 -1.0655 -1.0975 -0.2318
18471SOL     OW56853   6.145   0.722   6.598  0.1274 -0.2800 -0.0227
18471SOL    HW156854   6.075   0.777   6.631  0.3397 -0.1977  0.2883
18471SOL    HW256855   6.103   0.638   6.579 -0.3977  0.2610 -1.3899
18472SOL     OW56856   7.627   0.313   3.776 -0.0440  0.1795  0.0108
18472SOL    HW156857   7.574   0.331   3.853 -1.4713 -0.9814 -0.6490
18472SOL    HW256858   7.623   0.394   3.725  1.9619  1.4226  1.6630
18473SOL     OW56859   4.086   6.860  10.213  0.1703  0.5406 -0.3560
18473SOL    HW156860   4.001   6.859  10.256  1.0222  1.9838  1.5193
18473SOL    HW256861   4.136   6.791  10.256  0.4932  0.8677 -0.1950
18474SOL     OW56862   2.912   0.403  11.728  0.1626 -0.1245 -0.0748
18474SOL    HW156863   2.872   0.393  11.814 -4.4577 -0.2477 -1.9228
18474SOL    HW256864   2.945   0.493  11.727 -1.5661  0.5787  1.2506
18475SOL     OW56865   0.291   2.144   7.243  0.7399 -0.6135 -0.0619
18475SOL    HW156866   0.227   2.214   7.251  0.9104 -0.3043 -1.2070
18475SOL    HW256867   0.376   2.187   7.247  0.9218 -1.0814  1.9864
18476SOL     OW56868   0.240   5.919   4.023  0.5066  0.2068 -0.5625
18476SOL    HW156869   0.180   5.868   4.077  0.1527 -0.1383 -1.2677
18476SOL    HW256870   0.186   5.986   3.983 -0.0017 -1.6297 -3.2078
18477SOL     OW56871   2.411   4.377   4.662  0.3179 -0.2139 -0.5413
18477SOL    HW156872   2.356   4.362   4.739 -0.2994 -0.8980 -1.0923
18477SOL    HW256873   2.406   4.294   4.613  2.2494 -0.4918 -0.3699
18478SOL     OW56874   6.743   1.157  12.118  0.2482  0.0010  0.3156
18478SOL    HW156875   6.724   1.166  12.212  1.3680  1.0696  0.4668
18478SOL    HW256876   6.657   1.160  12.076 -0.2133  0.3625  1.2508
18479SOL     OW56877   1.695   2.753   2.931  0.0393  0.1225 -0.1462
18479SOL    HW156878   1.752   2.808   2.986 -1.0437  0.5526  0.5749
18479SOL    HW256879   1.666   2.812   2.861 -1.8220  0.7872  1.1093
18480SOL     OW56880   3.237   4.271   6.697 -0.4977 -0.6636 -0.0723
18480SOL    HW156881   3.226   4.192   6.644  0.5148  0.4788 -2.1096
18480SOL    HW256882   3.306   4.320   6.652 -0.2643  0.8326  1.8106
18481SOL     OW56883   3.184   7.650   5.188 -0.4151  0.0014  0.1647
18481SOL    HW156884   3.215   7.652   5.278  1.1430 -0.5747 -0.3205
18481SOL    HW256885   3.262   7.630   5.136 -1.3774 -0.2470 -1.2576
18482SOL     OW56886   3.749   0.530   4.470 -0.2043  0.5381  0.0388
18482SOL    HW156887   3.807   0.597   4.434 -0.9879  0.3107 -1.7766
18482SOL    HW256888   3.664   0.574   4.481 -0.3476  0.2206  0.2384
18483SOL     OW56889   7.490   0.945   2.970  0.5266 -0.6317 -0.2008
18483SOL    HW156890   7.504   0.988   3.054  0.1077 -1.2462  0.1928
18483SOL    HW256891   7.543   0.995   2.908 -0.1861  0.6409  0.1779
18484SOL     OW56892   0.343   1.859   1.374  0.0257 -0.4442  0.3780
18484SOL    HW156893   0.319   1.874   1.465 -0.1370  0.2271  0.2317
18484SOL    HW256894   0.436   1.838   1.376  0.8635  2.7778  0.4387
18485SOL     OW56895   1.179   0.400   0.478  0.5536 -0.2086 -0.4639
18485SOL    HW156896   1.177   0.411   0.573  1.4954 -0.9118 -0.3526
18485SOL    HW256897   1.095   0.360   0.457 -2.3364  5.0786 -0.6844
18486SOL     OW56898   2.358   1.824   0.975 -0.2146  0.3973  0.7446
18486SOL    HW156899   2.438   1.857   1.016  0.3782  1.0003 -0.8374
18486SOL    HW256900   2.360   1.858   0.886 -2.9300  1.5638  1.0262
18487SOL     OW56901   1.117   6.930   6.083 -0.1506 -0.2877  0.6375
18487SOL    HW156902   1.125   6.846   6.038 -0.6062 -0.2895  0.5503
18487SOL    HW256903   1.126   6.908   6.176  0.6686 -0.2996  0.5592
18488SOL     OW56904   1.102   5.891  10.318  0.2776 -0.4232 -0.1334
18488SOL    HW156905   1.197   5.885  10.316  0.2320 -1.1601 -0.8741
18488SOL    HW256906   1.075   5.825  10.381  0.2455 -0.5081 -0.2350
18489SOL     OW56907   4.768   7.197   8.952 -0.2969 -0.2512  0.1490
18489SOL    HW156908   4.856   7.164   8.932  0.1516  2.1380 -2.3436
18489SOL    HW256909   4.783   7.270   9.012 -0.6304 -0.1567  0.1198
18490SOL     OW56910   1.385   0.513   8.949  0.1048  0.4723 -0.2503
18490SOL    HW156911   1.386   0.608   8.954 -0.5835  0.4368  1.1428
18490SOL    HW256912   1.418   0.484   9.034  0.8888 -0.5525 -0.8745
18491SOL     OW56913   0.518   7.740   2.545 -0.1973 -0.4319 -0.2806
18491SOL    HW156914   0.499   7.709   2.456  0.1781 -0.2361 -0.4331
18491SOL    HW256915   0.586   7.679   2.576  0.2034 -0.0543 -0.4057
18492SOL     OW56916   4.204   1.294   4.684 -0.1171 -0.2235  0.8998
18492SOL    HW156917   4.178   1.363   4.623 -0.9390 -0.4576  0.9619
18492SOL    HW256918   4.296   1.311   4.703 -0.6178  1.6302  1.9222
18493SOL     OW56919   3.867   1.392   8.428  0.5015  1.2428  0.5538
18493SOL    HW156920   3.893   1.317   8.374 -1.0740  2.1767 -1.6867
18493SOL    HW256921   3.795   1.359   8.482  0.2471  0.9515  0.0508
18494SOL     OW56922   4.038   3.458   7.286 -0.2273 -0.3498  0.3018
18494SOL    HW156923   4.091   3.382   7.309 -0.1548 -0.3430  0.1541
18494SOL    HW256924   4.018   3.499   7.370 -0.7600 -0.8584  0.4352
18495SOL     OW56925   4.204   1.023   8.559 -0.3137  0.2962 -0.3403
18495SOL    HW156926   4.250   0.939   8.550 -0.8455 -0.1107  0.6024
18495SOL    HW256927   4.172   1.023   8.649 -0.4241  1.4694 -0.3628
18496SOL     OW56928   3.134   5.153   5.562  0.2002 -0.1152 -0.2778
18496SOL    HW156929   3.184   5.144   5.643 -0.6699  0.1101  0.2987
18496SOL    HW256930   3.142   5.246   5.539 -0.6544  0.1101  0.2923
18497SOL     OW56931   1.056   4.820   4.710  0.1274  0.2982 -0.4832
18497SOL    HW156932   1.111   4.742   4.722 -1.1122 -0.8443 -1.7631
18497SOL    HW256933   1.001   4.823   4.788  0.3433  0.0230 -0.3166
18498SOL     OW56934   1.385   5.776   7.197  0.0746 -0.5117  0.8253
18498SOL    HW156935   1.352   5.686   7.192  0.6288 -0.8583  2.6888
18498SOL    HW256936   1.436   5.778   7.278 -1.1907  1.8756  1.6662
18499SOL     OW56937   2.613   4.615  10.869 -0.4923  0.2780  0.2563
18499SOL    HW156938   2.671   4.591  10.797 -1.0059 -2.4771  0.6317
18499SOL    HW256939   2.528   4.629  10.828 -0.2485  1.2670  0.0642
18500SOL     OW56940   4.040   1.167   9.896  0.2554  0.2546  0.0936
18500SOL    HW156941   4.060   1.221   9.972  0.6846 -1.4724  1.2725
18500SOL    HW256942   4.091   1.206   9.825  1.5061  0.6830  1.1862
18501SOL     OW56943   3.349   2.055   8.169  0.0624 -0.0098 -0.1577
18501SOL    HW156944   3.266   2.018   8.197 -0.7668  1.1676 -1.0010
18501SOL    HW256945   3.415   2.003   8.216 -1.1789  0.7531  2.6410
18502SOL     OW56946   1.253   7.802   1.494  0.4772 -0.3637  0.4125
18502SOL    HW156947   1.339   7.778   1.460  0.7259  0.8984  0.0887
18502SOL    HW256948   1.233   7.734   1.558  0.9980 -1.5615 -0.6324
18503SOL     OW56949   7.846   2.191   4.586 -0.3270 -0.2671  0.1389
18503SOL    HW156950   7.767   2.226   4.545 -0.3048  0.2664  0.5439
18503SOL    HW256951   7.917   2.243   4.548 -0.1321 -0.9429 -0.4490
18504SOL     OW56952   5.355   6.475  11.172 -0.1923 -0.1910  0.0829
18504SOL    HW156953   5.275   6.430  11.201 -0.3271  0.2938  0.4611
18504SOL    HW256954   5.356   6.557  11.221 -0.1358  0.3904 -0.8633
18505SOL     OW56955   6.988   6.458   2.353 -0.2155  0.1393 -0.6264
18505SOL    HW156956   7.079   6.487   2.360 -0.4126  0.6353 -0.1012
18505SOL    HW256957   6.957   6.452   2.444 -1.9891  4.0420 -0.7940
18506SOL     OW56958   0.812   1.157   4.155  0.4031  0.4680 -0.1661
18506SOL    HW156959   0.724   1.165   4.191 -0.2176  0.7878 -1.6829
18506SOL    HW256960   0.799   1.132   4.063  1.8270  1.9791 -0.8340
18507SOL     OW56961   6.073   0.958   9.694 -0.3547 -0.5250 -0.1538
18507SOL    HW156962   6.104   1.012   9.621 -1.6766  0.8661  0.2722
18507SOL    HW256963   6.151   0.947   9.749  0.7309 -1.7993 -1.8244
18508SOL     OW56964   6.018   0.209   8.466  0.3589  0.2663 -0.0278
18508SOL    HW156965   6.072   0.162   8.402  1.3713 -1.5971  2.0568
18508SOL    HW256966   5.931   0.170   8.457  0.2920  0.5711 -0.7771
18509SOL     OW56967   2.112   6.226   4.345 -0.1458 -0.1097  0.4449
18509SOL    HW156968   2.049   6.158   4.369 -1.1522  0.7886  0.4487
18509SOL    HW256969   2.058   6.298   4.312  0.9483  0.3225 -0.4640
18510SOL     OW56970   5.858   5.345   7.548 -0.2167 -0.6542  0.5528
18510SOL    HW156971   5.894   5.418   7.497 -0.6000 -0.6270  0.3147
18510SOL    HW256972   5.883   5.267   7.499  1.8196 -0.8377  1.7800
18511SOL     OW56973   5.523   5.026   5.919  0.1249 -0.5026 -0.2975
18511SOL    HW156974   5.568   4.966   5.979 -0.8289 -0.5332  0.4038
18511SOL    HW256975   5.452   4.973   5.881 -1.9109  0.6021  1.7086
18512SOL     OW56976   4.423   4.874   6.035  0.1632 -0.1945 -0.0315
18512SOL    HW156977   4.415   4.791   6.081  0.8730  1.0715  2.6134
18512SOL    HW256978   4.513   4.902   6.053 -0.0002  1.0484 -1.0410
18513SOL     OW56979   6.305   1.441   9.015 -0.0837 -0.5019 -0.1238
18513SOL    HW156980   6.234   1.403   9.066 -0.6094  1.6155  0.8592
18513SOL    HW256981   6.270   1.451   8.927 -0.2291 -1.4455 -0.1776
18514SOL     OW56982   1.616   0.951   5.065 -0.2130 -0.2417  0.0588
18514SOL    HW156983   1.653   1.011   5.131  0.2252 -0.9808  0.4950
18514SOL    HW256984   1.633   0.994   4.981 -0.8152  0.7340  0.4193
18515SOL     OW56985   7.478   6.596   0.528  0.3603  0.2810  0.1911
18515SOL    HW156986   7.528   6.548   0.461  0.3993  0.9153 -0.2471
18515SOL    HW256987   7.541   6.660   0.563  0.0399  0.6523  0.0908
18516SOL     OW56988   3.162   4.891   2.212  0.1414  0.0045 -0.2094
18516SOL    HW156989   3.122   4.806   2.230 -0.0711  0.0944 -0.2481
18516SOL    HW256990   3.137   4.911   2.122  0.6117 -0.1199 -0.3686
18517SOL     OW56991   6.004   1.420  10.999 -0.1630  0.2487  0.2183
18517SOL    HW156992   5.928   1.365  10.980 -0.7411  1.1954 -0.2818
18517SOL    HW256993   5.971   1.486  11.061  0.4911  0.0929  0.7413
18518SOL     OW56994   0.788   7.625   4.626  0.0150 -0.9121  0.0058
18518SOL    HW156995   0.871   7.671   4.641 -0.9570  1.0501 -0.4062
18518SOL    HW256996   0.754   7.663   4.545 -0.6635 -2.6524 -0.5618
18519SOL     OW56997   1.982   7.759   7.017 -0.0824  0.5024  0.1836
18519SOL    HW156998   2.074   7.779   7.000 -0.5051  1.6159 -1.0309
18519SOL    HW256999   1.943   7.844   7.040 -0.8841  0.1289  0.2431
18520SOL     OW57000   1.709   7.658   0.204 -0.6233 -0.4369  0.2899
18520SOL    HW157001   1.759   7.653   0.285  2.6631 -1.1363 -1.5544
18520SOL    HW257002   1.685   7.750   0.196 -0.1016 -0.1632  1.5703
18521SOL     OW57003   2.386   1.003  11.279 -0.4105 -0.0062 -0.4105
18521SOL    HW157004   2.404   1.094  11.304 -0.8816 -0.5515  2.1336
18521SOL    HW257005   2.472   0.962  11.276 -0.2584  0.3313 -0.8191
18522SOL     OW57006   3.657   5.986  10.393 -0.4649  0.2279  0.4986
18522SOL    HW157007   3.738   5.959  10.350  0.1003  0.4533  1.3995
18522SOL    HW257008   3.630   6.064  10.345 -0.5102 -0.2244 -0.2260
18523SOL     OW57009   7.728   0.762   0.208  0.2097  0.3868 -0.4271
18523SOL    HW157010   7.737   0.834   0.145 -1.2453  0.0071 -1.1285
18523SOL    HW257011   7.634   0.758   0.225  0.5872  0.5864  1.9460
18524SOL     OW57012   0.048   5.756  10.256 -0.1125 -0.4069  0.0243
18524SOL    HW157013   0.125   5.711  10.221  0.0641 -1.4846  1.7185
18524SOL    HW257014   0.049   5.841  10.212  0.9137 -1.1326 -1.4587
18525SOL     OW57015   0.500   4.602   4.396  0.0211 -0.0281 -0.2156
18525SOL    HW157016   0.404   4.607   4.393 -0.1585 -2.3697  0.1243
18525SOL    HW257017   0.528   4.694   4.401 -2.1643  0.7418 -0.7862
18526SOL     OW57018   6.045   3.150  11.515 -0.1009 -0.0216  0.2829
18526SOL    HW157019   6.070   3.235  11.553 -2.3141  2.1121 -2.5369
18526SOL    HW257020   6.122   3.124  11.464 -0.0607  1.3973 -0.4458
18527SOL     OW57021   7.536   4.581   9.134  0.3172  0.3651  0.1288
18527SOL    HW157022   7.467   4.569   9.069  0.1041 -0.9129  0.5646
18527SOL    HW257023   7.616   4.592   9.083  0.1046 -0.2998 -0.3627
18528SOL     OW57024   2.189   2.980   8.204 -0.0993 -0.2992  0.6673
18528SOL    HW157025   2.110   2.931   8.183 -0.8544  1.5216 -1.0445
18528SOL    HW257026   2.239   2.982   8.122  0.9246 -0.0082  1.2754
18529SOL     OW57027   4.025   6.958   1.410  0.3545 -0.0629 -0.3357
18529SOL    HW157028   3.931   6.944   1.418  0.3996  0.1393  0.6268
18529SOL    HW257029   4.046   6.930   1.321 -0.0297 -3.5949  0.5349
18530SOL     OW57030   6.525   1.149   0.142 -0.1277 -0.0704 -0.9982
18530SOL    HW157031   6.514   1.228   0.194 -1.3532 -1.4548  1.0278
18530SOL    HW257032   6.438   1.131   0.106 -0.0822 -0.9202 -0.7236
18531SOL     OW57033   2.789   4.096   7.778 -0.2735 -0.0613 -0.1386
18531SOL    HW157034   2.842   4.143   7.713 -0.0042 -0.5876 -0.3073
18531SOL    HW257035   2.756   4.020   7.731  0.4315 -0.7836  0.4928
18532SOL     OW57036   6.030   4.795   9.489 -0.9363  0.0030  0.4917
18532SOL    HW157037   5.960   4.848   9.526 -0.1278  0.7902  0.9500
18532SOL    HW257038   6.097   4.794   9.557  0.7117  1.6867 -1.0038
18533SOL     OW57039   0.523   4.689   3.688  0.0571 -0.3214 -0.3977
18533SOL    HW157040   0.546   4.752   3.620  1.4716 -1.8007 -1.3663
18533SOL    HW257041   0.452   4.637   3.650 -0.1480 -0.2224 -0.1545
18534SOL     OW57042   6.753   0.349   6.989 -0.2418 -0.5255 -0.3740
18534SOL    HW157043   6.715   0.395   6.915  1.7197  0.1488 -1.0046
18534SOL    HW257044   6.754   0.414   7.060 -1.5410 -0.9860  0.1087
18535SOL     OW57045   1.633   7.431   2.332  0.1722 -0.8355  0.3073
18535SOL    HW157046   1.717   7.410   2.292  0.3831 -1.6340  1.1436
18535SOL    HW257047   1.574   7.362   2.300 -0.0139 -0.6294  0.2075
18536SOL     OW57048   0.706   0.542  12.379  0.2203 -0.2901  0.2439
18536SOL    HW157049   0.636   0.481  12.402  1.1664 -1.5653 -0.1548
18536SOL    HW257050   0.755   0.498  12.311  1.6179  0.4330  0.7423
18537SOL     OW57051   0.720   0.397  11.260  0.1861  1.0194  0.5641
18537SOL    HW157052   0.756   0.388  11.172 -1.4402  1.9934 -0.2475
18537SOL    HW257053   0.744   0.315  11.303 -0.0007 -0.0142 -1.1749
18538SOL     OW57054   1.615   7.303   3.272 -0.5238  0.3212 -0.6257
18538SOL    HW157055   1.539   7.284   3.326 -0.1195  2.2579  0.7155
18538SOL    HW257056   1.665   7.221   3.272 -0.9703  0.0051  1.2475
18539SOL     OW57057   5.461   2.224   4.402 -0.0979 -0.0476  0.0642
18539SOL    HW157058   5.368   2.242   4.419 -0.5338 -1.0874 -1.1103
18539SOL    HW257059   5.469   2.129   4.410  0.3904 -0.2176 -1.9614
18540SOL     OW57060   3.314   0.851   7.718 -0.6501  0.2942  0.0373
18540SOL    HW157061   3.381   0.903   7.762 -0.1499  0.7785 -1.2441
18540SOL    HW257062   3.362   0.793   7.660 -1.1862 -1.8215  1.5816
18541SOL     OW57063   2.586   4.460   6.802 -0.1410 -0.0027 -0.0690
18541SOL    HW157064   2.500   4.426   6.824 -0.3242  0.2336 -0.4067
18541SOL    HW257065   2.613   4.410   6.724  0.4121 -0.6905  0.5483
18542SOL     OW57066   6.794   2.840   7.461  0.6106  0.3269  0.0351
18542SOL    HW157067   6.785   2.906   7.530  0.1489  0.9064 -0.5717
18542SOL    HW257068   6.705   2.808   7.446  0.3058  1.9057 -1.9160
18543SOL     OW57069   7.474   3.550   3.034 -0.0131  0.4916  0.1985
18543SOL    HW157070   7.450   3.487   2.966 -0.5379 -1.5572  2.1347
18543SOL    HW257071   7.491   3.631   2.987  0.5858 -1.0371 -2.4548
18544SOL     OW57072   1.488   3.752   1.237 -0.1380  0.4652  0.1647
18544SOL    HW157073   1.459   3.758   1.146  0.9578  1.0436 -0.1578
18544SOL    HW257074   1.409   3.731   1.286 -0.6797 -0.1788 -0.9626
18545SOL     OW57075   7.331   1.477  10.558 -0.4341 -0.6233  0.0135
18545SOL    HW157076   7.421   1.447  10.573 -0.3699  0.0045  1.0310
18545SOL    HW257077   7.300   1.425  10.484  0.5609 -1.2830  0.0376
18546SOL     OW57078   1.890   1.754   5.035  0.1920 -0.1704  0.1564
18546SOL    HW157079   1.798   1.763   5.010 -0.0875  0.2193  1.2661
18546SOL    HW257080   1.925   1.686   4.977 -0.7561 -0.2145 -0.3687
18547SOL     OW57081   7.321   3.386   7.632  0.0208 -0.0604  0.1495
18547SOL    HW157082   7.235   3.416   7.663  1.4765  2.1061  2.5341
18547SOL    HW257083   7.323   3.293   7.651 -2.1996 -0.4399 -1.1330
18548SOL     OW57084   0.836   1.779   8.895 -0.4683  0.3992  0.3988
18548SOL    HW157085   0.794   1.863   8.909 -0.7555  0.1182  1.3379
18548SOL    HW257086   0.764   1.718   8.877 -0.1882  0.5277 -1.3169
18549SOL     OW57087   7.734   2.200  11.153 -0.0784  0.1211  0.1012
18549SOL    HW157088   7.740   2.140  11.227  0.7781  0.2935  0.1780
18549SOL    HW257089   7.668   2.264  11.179 -2.0215 -1.5178 -0.5246
18550SOL     OW57090   3.623   6.668   9.377 -0.0045 -0.4438  0.3348
18550SOL    HW157091   3.557   6.642   9.440 -1.5248 -0.4499 -1.1958
18550SOL    HW257092   3.599   6.757   9.352  0.9917 -0.1782  0.2761
18551SOL     OW57093   5.291   4.275   9.742  0.1054 -0.1220 -0.0705
18551SOL    HW157094   5.296   4.347   9.679  1.7599  0.2583  0.4555
18551SOL    HW257095   5.378   4.235   9.741 -0.6598 -1.8861 -0.0491
18552SOL     OW57096   3.163   1.977   1.698 -0.0266 -0.3229  0.1299
18552SOL    HW157097   3.144   2.059   1.651  0.3997 -0.2626  0.0572
18552SOL    HW257098   3.258   1.967   1.691  0.0719 -0.1825  1.2117
18553SOL     OW57099   2.611   5.428   4.518  0.2276  0.4320 -0.1800
18553SOL    HW157100   2.515   5.427   4.516  0.2182  0.5902  0.0832
18553SOL    HW257101   2.633   5.388   4.602  0.4195 -0.4779 -0.6489
18554SOL     OW57102   7.498   2.240  10.740  0.5208 -0.4391 -0.1699
18554SOL    HW157103   7.531   2.180  10.807  1.0940 -0.2369 -0.2625
18554SOL    HW257104   7.556   2.226  10.665  0.0736 -0.4429 -0.5195
18555SOL     OW57105   3.659   0.190   2.624  0.0760  0.1570 -0.6353
18555SOL    HW157106   3.663   0.097   2.600  1.7565  0.6728 -2.5443
18555SOL    HW257107   3.702   0.236   2.552 -0.4955  2.4214  0.3853
18556SOL     OW57108   0.038   1.184   4.225 -0.9120  0.6855  0.2405
18556SOL    HW157109  -0.020   1.155   4.295 -2.2013  1.4235 -0.4823
18556SOL    HW257110  -0.014   1.174   4.145 -0.2480  1.9119 -0.3766
18557SOL     OW57111   1.393   1.518   5.622 -0.5157  0.2932 -0.1192
18557SOL    HW157112   1.323   1.461   5.655 -0.3803 -0.3179 -0.8686
18557SOL    HW257113   1.349   1.575   5.559 -0.8300  1.6464  1.2587
18558SOL     OW57114   5.943   4.666   3.297  0.2337 -0.4087 -0.0005
18558SOL    HW157115   5.946   4.663   3.201  0.8521  3.1647 -0.2422
18558SOL    HW257116   6.034   4.660   3.324  0.3190  1.2529  0.1421
18559SOL     OW57117   2.119   7.697   2.773 -0.2334 -0.6668  0.2404
18559SOL    HW157118   2.063   7.622   2.793 -0.8658 -0.3018 -0.1207
18559SOL    HW257119   2.140   7.734   2.859  0.8370 -1.7754  0.4806
18560SOL     OW57120   7.653   2.212  10.528 -0.4120 -0.2525 -0.3173
18560SOL    HW157121   7.572   2.235  10.482 -0.1636  2.3672  0.4219
18560SOL    HW257122   7.722   2.257  10.479  0.1870  0.2411  0.9538
18561SOL     OW57123   4.762   6.078  12.107 -0.4138 -0.3741 -0.2081
18561SOL    HW157124   4.813   6.005  12.073 -0.9590  0.2617 -2.5152
18561SOL    HW257125   4.827   6.141  12.139  0.1824 -0.4059 -1.3412
18562SOL     OW57126   1.983   6.461   1.650 -0.3768  0.2820  0.3341
18562SOL    HW157127   1.997   6.376   1.692 -0.9769 -0.3002 -0.5974
18562SOL    HW257128   1.975   6.523   1.723  0.6503 -0.3573  1.0126
18563SOL     OW57129   5.661   0.430   2.874 -0.2778  0.5033 -0.1978
18563SOL    HW157130   5.612   0.498   2.827 -0.8505  0.4476  0.3019
18563SOL    HW257131   5.728   0.478   2.922  0.9260  0.4736 -1.7966
18564SOL     OW57132   0.728   6.624   9.740  0.3563  0.0960  0.2076
18564SOL    HW157133   0.690   6.711   9.747 -0.7159 -0.3587  0.2934
18564SOL    HW257134   0.806   6.627   9.795 -0.6000  0.5183  1.5901
18565SOL     OW57135   4.857   6.073   3.478  0.4764 -0.5810  0.2929
18565SOL    HW157136   4.951   6.054   3.471  0.9780  1.7966 -0.4055
18565SOL    HW257137   4.817   6.018   3.412  1.5794 -0.5363 -0.4472
18566SOL     OW57138   2.376   3.105   4.344 -0.3859  0.2017  0.2619
18566SOL    HW157139   2.425   3.186   4.354  1.1110 -0.7719  1.0862
18566SOL    HW257140   2.338   3.089   4.430 -1.5125  0.4985 -0.1485
18567SOL     OW57141   7.238   2.484   6.195 -0.0505  0.0446  0.2731
18567SOL    HW157142   7.328   2.508   6.173 -0.0817  0.2229  0.3417
18567SOL    HW257143   7.196   2.469   6.110  0.2724 -0.8746  0.2703
18568SOL     OW57144   4.344   4.875  10.131 -0.0274  0.7234 -0.3609
18568SOL    HW157145   4.268   4.924  10.099 -0.8529 -1.5249 -2.1046
18568SOL    HW257146   4.359   4.809  10.064  0.4854 -1.9690  2.2100
18569SOL     OW57147   3.252   0.291   0.558 -0.4361 -0.2120  1.1592
18569SOL    HW157148   3.207   0.207   0.567 -0.3756 -0.3959 -0.0722
18569SOL    HW257149   3.217   0.345   0.629 -0.8063 -1.1285  1.6869
18570SOL     OW57150   3.144   2.785   5.129 -0.2870 -0.4279 -0.1435
18570SOL    HW157151   3.237   2.796   5.148 -0.5316  0.8556  0.4469
18570SOL    HW257152   3.141   2.718   5.060  0.9935 -1.1808  0.4929
18571SOL     OW57153   7.675   1.818  12.106 -0.1911  0.5423 -0.1441
18571SOL    HW157154   7.728   1.898  12.109 -1.0051  1.0750  1.1404
18571SOL    HW257155   7.681   1.782  12.195  0.2274 -0.8828 -0.7274
18572SOL     OW57156   3.805   7.887   5.151  0.5127 -0.4215 -0.4685
18572SOL    HW157157   3.894   7.923   5.157 -0.4674  1.8199  2.6193
18572SOL    HW257158   3.815   7.796   5.177  1.9535 -0.3784 -0.7477
18573SOL     OW57159   5.202   3.120   7.151 -0.1709 -0.2614 -0.1833
18573SOL    HW157160   5.133   3.145   7.213 -0.9712 -1.5558 -0.5213
18573SOL    HW257161   5.210   3.195   7.092 -1.9683 -0.4506 -0.7108
18574SOL     OW57162   0.195   5.964   4.697  0.6013  0.3635  0.0581
18574SOL    HW157163   0.261   6.009   4.645 -0.2601  0.4709 -0.9724
18574SOL    HW257164   0.233   5.959   4.785  1.0644  2.3754  0.0259
18575SOL     OW57165   6.999   4.303   8.270 -0.3067  0.3117 -0.2888
18575SOL    HW157166   7.082   4.262   8.249 -0.3214  0.6259 -0.9889
18575SOL    HW257167   7.000   4.313   8.365  0.9457  1.3525 -0.3826
18576SOL     OW57168   6.102   5.198   2.862 -0.9096  0.0340  0.1853
18576SOL    HW157169   6.159   5.269   2.832 -1.0729 -0.1422 -0.5618
18576SOL    HW257170   6.161   5.123   2.872 -0.8141  0.1550  0.5437
18577SOL     OW57171   3.409   1.936   6.869  0.1269  0.4093  0.0806
18577SOL    HW157172   3.396   1.874   6.798  2.3046 -0.2989  0.2212
18577SOL    HW257173   3.384   1.887   6.948  1.1864 -0.1100  0.1209
18578SOL     OW57174   6.252   4.079   6.787  0.1253 -0.0339  0.0842
18578SOL    HW157175   6.214   4.105   6.871 -1.0208 -1.0076 -0.0936
18578SOL    HW257176   6.261   3.984   6.794  0.2020 -0.0987 -0.8210
18579SOL     OW57177   0.597   5.369   6.809 -0.3640 -0.2136  0.3751
18579SOL    HW157178   0.581   5.434   6.741 -0.2701  0.4615  0.9877
18579SOL    HW257179   0.590   5.285   6.764 -1.0219  0.1990 -0.3181
18580SOL     OW57180   4.696   4.559   0.785 -0.0968 -0.0685  0.0774
18580SOL    HW157181   4.645   4.614   0.844 -0.8884  1.5066 -1.9434
18580SOL    HW257182   4.782   4.551   0.828 -0.5254  1.2937  1.2691
18581SOL     OW57183   3.856   4.643  11.578  0.4905 -0.1099  0.1722
18581SOL    HW157184   3.798   4.708  11.618  1.0782  1.1131 -0.8769
18581SOL    HW257185   3.855   4.665  11.485  2.9718  0.2759  0.1640
18582SOL     OW57186   7.924   4.420  10.328 -0.3631 -0.3866 -0.5735
18582SOL    HW157187   7.961   4.508  10.329 -2.6830  0.6435  0.5018
18582SOL    HW257188   7.984   4.369  10.382  0.8331  0.5859 -0.9252
18583SOL     OW57189   3.795   2.299   2.543 -0.5489  0.3407  0.5083
18583SOL    HW157190   3.843   2.282   2.623 -0.2650  1.9827  0.7256
18583SOL    HW257191   3.863   2.314   2.477 -0.7731 -1.3209 -0.1562
18584SOL     OW57192   2.909   5.205   3.286  0.8513 -0.0759  0.6041
18584SOL    HW157193   2.904   5.167   3.198  1.3094  0.4426  0.3496
18584SOL    HW257194   2.984   5.162   3.326  1.7530  0.9574  0.1011
18585SOL     OW57195   4.292   6.777   7.061  0.0592 -0.7518  0.7906
18585SOL    HW157196   4.252   6.842   7.003  2.6970  1.9317  1.7257
18585SOL    HW257197   4.263   6.803   7.149  1.3776 -0.6164  1.2011
18586SOL     OW57198   0.689   0.157   9.960 -0.2856  0.0433 -0.7435
18586SOL    HW157199   0.725   0.127   9.876 -1.6222  0.2035 -1.4080
18586SOL    HW257200   0.765   0.160  10.019  0.3191 -2.1886 -1.3099
18587SOL     OW57201   2.430   2.770   3.593 -0.0117  0.1380  0.2034
18587SOL    HW157202   2.457   2.812   3.675 -0.3142  0.0357  0.3556
18587SOL    HW257203   2.440   2.677   3.610  1.6362  0.1504 -0.4683
18588SOL     OW57204   0.209   6.345   6.893  0.1432  0.1437  0.1134
18588SOL    HW157205   0.217   6.266   6.946  1.2536  0.6541  0.7317
18588SOL    HW257206   0.188   6.414   6.955 -0.4768  0.4081 -0.3799
18589SOL     OW57207   5.128   1.935   4.219 -0.4610  0.3372 -0.3058
18589SOL    HW157208   5.064   1.915   4.151 -0.2049  0.9231 -0.7307
18589SOL    HW257209   5.192   1.864   4.215 -1.7392 -0.9417  0.9725
18590SOL     OW57210   2.938   5.519   3.665  0.2098 -0.1073 -0.6191
18590SOL    HW157211   2.866   5.579   3.686 -0.5974 -0.9571 -0.8943
18590SOL    HW257212   2.921   5.491   3.575  0.0750 -1.4022 -0.2186
18591SOL     OW57213   7.589   6.158   8.976 -0.5334  0.0070 -0.0083
18591SOL    HW157214   7.609   6.220   8.906  0.1165  0.2290  0.3699
18591SOL    HW257215   7.601   6.072   8.936 -2.4126  0.0735 -0.8263
18592SOL     OW57216   1.319   6.921   6.701  0.5853  0.6591  0.0876
18592SOL    HW157217   1.264   6.849   6.731  0.0394  1.0148 -0.0588
18592SOL    HW257218   1.403   6.879   6.678  0.6156  0.2138  0.9644
18593SOL     OW57219   3.418   0.040   9.025 -0.0966  0.1981 -0.2881
18593SOL    HW157220   3.362   0.076   9.094 -0.5564  1.9760 -1.5298
18593SOL    HW257221   3.507   0.055   9.057 -0.3027  1.3673 -0.2276
18594SOL     OW57222   1.139   1.660   6.544  0.2328  0.3825 -0.0725
18594SOL    HW157223   1.222   1.706   6.540 -0.0235  0.7819 -1.2851
18594SOL    HW257224   1.161   1.569   6.522  0.4813  0.2807  0.5811
18595SOL     OW57225   1.386   5.772   3.763 -0.4295 -0.6558  0.2630
18595SOL    HW157226   1.395   5.836   3.692 -1.9458 -0.0485  0.5799
18595SOL    HW257227   1.418   5.690   3.726  1.3901  0.2135 -0.2197
18596SOL     OW57228   3.206   7.364   1.725 -0.3408 -0.0666  0.5542
18596SOL    HW157229   3.188   7.388   1.816 -1.9098 -0.3745  0.3662
18596SOL    HW257230   3.147   7.290   1.708  0.2558 -0.3040 -0.5738
18597SOL     OW57231   2.051   0.765  10.534 -0.4787 -0.5666 -0.2696
18597SOL    HW157232   2.051   0.672  10.558  0.7151 -0.5969 -0.3348
18597SOL    HW257233   1.964   0.781  10.499 -0.2986 -1.9820 -1.4457
18598SOL     OW57234   5.863   5.234   8.374  0.1211 -0.7448 -0.0653
18598SOL    HW157235   5.927   5.269   8.312  1.1013 -1.9791  0.2037
18598SOL    HW257236   5.916   5.195   8.443 -0.9472 -0.3659  1.0056
18599SOL     OW57237   5.296   6.662   6.064  0.0452 -0.1278  0.7098
18599SOL    HW157238   5.370   6.629   6.116 -0.1733 -1.1635  0.3970
18599SOL    HW257239   5.332   6.670   5.975 -0.1786 -0.5319  0.5792
18600SOL     OW57240   0.600   3.113   5.236 -0.1833  0.3551 -0.0673
18600SOL    HW157241   0.511   3.078   5.244 -0.3348  0.9156  0.8098
18600SOL    HW257242   0.645   3.079   5.313  1.3640 -2.6932 -2.1222
18601SOL     OW57243   7.813   7.018   9.610 -0.0427  0.5080  0.1610
18601SOL    HW157244   7.794   6.974   9.527 -0.5866  0.8004  0.1258
18601SOL    HW257245   7.736   7.001   9.664 -0.3637  1.6158  0.0691
18602SOL     OW57246   1.636   3.906   0.962  0.2971  0.4735  0.0930
18602SOL    HW157247   1.618   3.816   0.933 -1.9971  0.9144 -0.0090
18602SOL    HW257248   1.710   3.933   0.907 -0.6206 -0.4972 -1.7337
18603SOL     OW57249   0.082   7.561   2.992 -0.2811 -0.6436  0.5036
18603SOL    HW157250  -0.008   7.541   2.966  0.0635  0.3744 -1.7300
18603SOL    HW257251   0.080   7.655   3.012  0.7486  0.0610 -2.2399
18604SOL     OW57252   0.863   4.603   6.145  0.7517 -0.0305  0.2581
18604SOL    HW157253   0.837   4.688   6.179  2.5574  0.2196  1.1319
18604SOL    HW257254   0.853   4.543   6.219  0.9280 -0.2799  0.0827
18605SOL     OW57255   0.983   7.893  12.116  0.5020  0.3165 -0.0684
18605SOL    HW157256   0.994   7.968  12.173 -0.8954  0.1612  0.4377
18605SOL    HW257257   1.005   7.925  12.029 -1.8656  1.8856 -0.1836
18606SOL     OW57258   2.776   3.210  11.868 -0.4415 -0.5458  0.4753
18606SOL    HW157259   2.692   3.173  11.841  0.2724 -1.8489 -0.0380
18606SOL    HW257260   2.819   3.235  11.787 -0.2947  0.0329  0.7290
18607SOL     OW57261   6.653   0.149   0.561 -0.6894 -0.6072 -0.7524
18607SOL    HW157262   6.700   0.102   0.629  1.1592 -1.5316 -2.5577
18607SOL    HW257263   6.715   0.155   0.488 -2.0996  1.5215 -1.8999
18608SOL     OW57264   7.265   3.273   9.446 -0.7080  0.6316  0.1239
18608SOL    HW157265   7.209   3.296   9.372 -0.9582  1.2241  0.4856
18608SOL    HW257266   7.213   3.210   9.497 -0.5189  0.1920 -0.2214
18609SOL     OW57267   1.907   6.323   6.190  0.6517  0.7399 -0.5991
18609SOL    HW157268   1.929   6.292   6.102 -1.0924  1.8902 -1.5230
18609SOL    HW257269   1.969   6.280   6.248  3.0821  1.3566 -2.5791
18610SOL     OW57270   4.934   2.745   6.292  0.0087  0.6500  0.1051
18610SOL    HW157271   5.016   2.794   6.278  0.5257 -0.5665 -1.2955
18610SOL    HW257272   4.893   2.741   6.206 -0.3020 -0.8841  0.2980
18611SOL     OW57273   1.224   0.757  10.056 -0.4243  0.2140 -0.3363
18611SOL    HW157274   1.207   0.672  10.097 -2.3859  0.4351 -0.5951
18611SOL    HW257275   1.292   0.739   9.991  2.6148 -0.1978  2.6666
18612SOL     OW57276   4.973   4.796   4.092  0.0173 -0.0324  0.1258
18612SOL    HW157277   5.057   4.811   4.136 -0.4048  1.8446  0.3773
18612SOL    HW257278   4.909   4.790   4.164 -0.4033  1.1364 -0.1229
18613SOL     OW57279   3.068   4.158   5.708  0.1400 -0.1234 -0.1565
18613SOL    HW157280   3.159   4.150   5.680  0.0487  1.8492 -1.1637
18613SOL    HW257281   3.048   4.074   5.749  1.8304 -1.3023 -1.6091
18614SOL     OW57282   3.072   6.039   6.346  0.1833 -0.1565  0.0919
18614SOL    HW157283   2.995   6.077   6.388 -0.9640 -0.4966 -1.6392
18614SOL    HW257284   3.038   5.991   6.271  2.1285  0.0288 -0.9713
18615SOL     OW57285   2.048   6.687   2.980  0.0140  0.2889 -0.5453
18615SOL    HW157286   2.053   6.783   2.986 -0.8801  0.3022  0.2226
18615SOL    HW257287   1.979   6.671   2.916 -0.2752  0.1570 -0.1990
18616SOL     OW57288   1.478   4.879   9.226 -0.2016  0.4970 -0.0294
18616SOL    HW157289   1.476   4.790   9.261 -1.4154  1.2124  1.8825
18616SOL    HW257290   1.546   4.876   9.158  0.2387 -1.7094  0.4081
18617SOL     OW57291   1.347   7.331  11.907  0.2660 -0.8940 -0.3433
18617SOL    HW157292   1.333   7.406  11.966  0.3716 -0.7221 -0.5372
18617SOL    HW257293   1.358   7.257  11.966  2.1146 -0.4467 -0.0757
18618SOL     OW57294   0.351   2.247   5.587 -0.2763  0.5421 -0.2451
18618SOL    HW157295   0.421   2.306   5.561 -0.5089  1.1845  0.5390
18618SOL    HW257296   0.298   2.298   5.649 -2.5798  0.8025 -2.2503
18619SOL     OW57297   6.793   3.957   3.733  0.0087  0.3150 -0.0078
18619SOL    HW157298   6.755   4.024   3.677  0.0462 -0.5125 -1.0659
18619SOL    HW257299   6.885   3.953   3.708 -0.1252 -0.5461 -0.3919
18620SOL     OW57300   7.486   1.292  10.994 -0.7311 -0.2939 -0.0774
18620SOL    HW157301   7.576   1.260  10.985 -0.5642  0.5621 -1.9256
18620SOL    HW257302   7.459   1.263  11.082  1.7776  0.5557  1.0733
18621SOL     OW57303   2.957   4.156   2.830 -0.0509 -0.2081 -0.2766
18621SOL    HW157304   2.966   4.205   2.748  0.8512 -0.4545 -0.3379
18621SOL    HW257305   3.005   4.208   2.894 -3.6017  1.8701  1.0128
18622SOL     OW57306   4.605   7.111   8.060  0.2972 -0.3376 -0.0467
18622SOL    HW157307   4.519   7.112   8.018  0.8508 -1.8540 -1.3343
18622SOL    HW257308   4.604   7.031   8.113  0.8286 -0.2377  0.1150
18623SOL     OW57309   2.426   1.722   0.272  0.5594 -0.3387  0.3456
18623SOL    HW157310   2.347   1.680   0.304  0.2256 -0.4291 -0.5467
18623SOL    HW257311   2.465   1.658   0.212  0.1986  0.4845 -0.8028
18624SOL     OW57312   4.095   0.470  11.578  0.0045  0.6257  0.2771
18624SOL    HW157313   4.182   0.480  11.616 -0.4575  0.2496  1.4968
18624SOL    HW257314   4.108   0.480  11.484  1.5228 -0.3704  0.3423
18625SOL     OW57315   1.576   4.097   8.273 -0.6940  0.1615 -0.3386
18625SOL    HW157316   1.532   4.012   8.273 -0.7773  0.2019  0.0761
18625SOL    HW257317   1.615   4.105   8.360  1.1024 -0.3610 -1.0461
18626SOL     OW57318   7.855   4.969   3.968  0.3147  0.6343  0.4635
18626SOL    HW157319   7.788   5.009   3.913 -1.4779 -0.8569  1.4660
18626SOL    HW257320   7.938   5.000   3.931 -0.8665  1.4747 -1.6335
18627SOL     OW57321   2.761   5.346   7.371 -0.1549 -0.5284  0.2090
18627SOL    HW157322   2.824   5.315   7.307  0.2349 -1.3850  0.9920
18627SOL    HW257323   2.798   5.429   7.403 -0.5874  0.1567 -0.9834
18628SOL     OW57324   6.847   0.768   9.737 -0.0732 -0.2434 -0.7227
18628SOL    HW157325   6.832   0.843   9.680  0.9544 -0.9239 -1.9248
18628SOL    HW257326   6.793   0.785   9.814  2.2009  3.1102  0.3385
18629SOL     OW57327   7.530   5.892  10.503  0.2758  0.6444 -0.1886
18629SOL    HW157328   7.618   5.857  10.518  1.0986  2.4146 -0.5837
18629SOL    HW257329   7.488   5.887  10.589  0.5585 -0.7139 -0.1084
18630SOL     OW57330   2.838   0.820   8.959  0.0213 -0.8898 -0.3077
18630SOL    HW157331   2.866   0.763   9.031  1.3587  1.1247  0.8890
18630SOL    HW257332   2.918   0.867   8.934 -0.9168  0.1074 -1.5489
18631SOL     OW57333   6.200   2.014  10.422  0.4577 -0.2126 -0.1125
18631SOL    HW157334   6.187   1.942  10.484  0.4266 -2.4101 -2.5055
18631SOL    HW257335   6.291   2.040  10.434  0.5734 -0.8941  0.5654
18632SOL     OW57336   0.849   5.174   0.624  0.1161  0.0552  0.5499
18632SOL    HW157337   0.793   5.250   0.607  0.6520  0.3502  0.0751
18632SOL    HW257338   0.820   5.141   0.709 -1.4704 -0.4105 -0.1266
18633SOL     OW57339   7.962   0.685   5.702  0.5346  0.3736  0.7143
18633SOL    HW157340   7.899   0.745   5.662 -0.1475 -0.1465  1.0011
18633SOL    HW257341   7.945   0.690   5.796  0.8246  0.1113  0.7838
18634SOL     OW57342   3.954   5.419  11.464  0.2964 -0.2301 -0.1206
18634SOL    HW157343   3.978   5.456  11.549  1.0047  0.1355 -0.4641
18634SOL    HW257344   3.971   5.325  11.472  1.8202 -0.0013 -0.3163
18635SOL     OW57345   2.668   7.393   2.572 -0.1306 -0.1132  0.2406
18635SOL    HW157346   2.646   7.486   2.571  0.4522  0.0451  1.0112
18635SOL    HW257347   2.605   7.354   2.633  0.3594 -0.0210  0.8115
18636SOL     OW57348   7.004   1.736   2.569 -0.0128  0.5694  0.1025
18636SOL    HW157349   6.963   1.773   2.490 -0.5984  1.7894  0.9409
18636SOL    HW257350   7.005   1.809   2.631  3.0382  0.4772  0.3039
18637SOL     OW57351   6.265   4.091   3.787 -0.1933 -0.1372 -0.4415
18637SOL    HW157352   6.335   4.029   3.808  1.0633  1.1961 -0.5074
18637SOL    HW257353   6.280   4.164   3.848 -1.3028  0.3455 -0.7292
18638SOL     OW57354   6.686   7.449   2.021  0.0557 -0.0305  0.6298
18638SOL    HW157355   6.713   7.482   1.935  0.6948 -0.1710  0.7714
18638SOL    HW257356   6.728   7.507   2.084  0.2326 -0.4062  0.8593
18639SOL     OW57357   4.779   1.168   0.150 -0.1673  0.7754  0.1535
18639SOL    HW157358   4.772   1.137   0.060 -0.0924  3.2613 -0.7661
18639SOL    HW257359   4.870   1.150   0.175 -0.9139 -2.7300  0.9392
18640SOL     OW57360   3.640   5.960   8.554  0.0489 -0.1252  0.1726
18640SOL    HW157361   3.672   5.945   8.465 -1.5594 -2.0248 -0.1376
18640SOL    HW257362   3.585   5.884   8.574 -1.0690  1.1003  2.1347
18641SOL     OW57363   7.788   1.238   2.510  0.7137 -0.1957  0.4790
18641SOL    HW157364   7.701   1.254   2.547  1.0649  0.5673  1.0101
18641SOL    HW257365   7.797   1.143   2.511  0.3031 -0.2410  1.4406
18642SOL     OW57366   2.186   1.773   4.074  0.4457 -0.6907 -0.6215
18642SOL    HW157367   2.092   1.785   4.085  0.3169 -0.7973 -1.5373
18642SOL    HW257368   2.210   1.708   4.140  0.0960  0.1938  0.4073
18643SOL     OW57369   4.385   2.083   6.410 -0.3042 -0.1318 -0.4580
18643SOL    HW157370   4.445   2.134   6.356 -0.4528 -0.2206 -0.7106
18643SOL    HW257371   4.304   2.134   6.411 -0.2903 -0.1131 -0.2885
18644SOL     OW57372   4.740   5.394   1.569 -0.0310  0.0069 -0.0056
18644SOL    HW157373   4.674   5.326   1.580 -0.6964  0.6971  0.3835
18644SOL    HW257374   4.729   5.424   1.479 -1.3506  1.2078  0.5161
18645SOL     OW57375   1.348   3.565   9.402 -0.5875 -0.3768  0.6889
18645SOL    HW157376   1.413   3.518   9.349  0.4744  0.1259  1.4952
18645SOL    HW257377   1.268   3.514   9.394 -0.6072 -0.0964 -1.7503
18646SOL     OW57378   3.374   7.850   4.223 -0.3031 -0.4672  0.2059
18646SOL    HW157379   3.307   7.795   4.183 -1.3451 -0.2155  1.5337
18646SOL    HW257380   3.326   7.922   4.263  0.6102 -0.9250  2.2672
18647SOL     OW57381   4.300   2.668  11.522 -0.9325  0.0100 -0.4289
18647SOL    HW157382   4.271   2.670  11.613 -0.1277 -1.3889 -0.1062
18647SOL    HW257383   4.396   2.675  11.528 -0.4651 -3.9966 -0.8187
18648SOL     OW57384   6.512   2.713   7.340  0.4543  0.1636 -0.8048
18648SOL    HW157385   6.540   2.621   7.342  2.5004  0.7126 -1.5922
18648SOL    HW257386   6.418   2.710   7.356  0.8783 -1.8478  2.1896
18649SOL     OW57387   1.737   5.509   7.654  0.2811  0.0077  0.3298
18649SOL    HW157388   1.775   5.422   7.671  2.2370  0.3544 -1.7828
18649SOL    HW257389   1.680   5.495   7.579  0.0006  0.4139  0.4680
18650SOL     OW57390   1.208   2.077  11.355 -0.1692 -0.0092 -0.6244
18650SOL    HW157391   1.239   2.122  11.277 -1.2880  1.4816 -0.2365
18650SOL    HW257392   1.288   2.037  11.392  0.9611  1.9983 -0.7569
18651SOL     OW57393   2.487   7.865   0.184 -0.1362  0.3981  0.1989
18651SOL    HW157394   2.424   7.840   0.116 -0.6522 -1.0130  1.1408
18651SOL    HW257395   2.472   7.958   0.197 -0.3009  0.6172 -1.3141
18652SOL     OW57396   3.494   2.306   7.913  0.2186 -0.3453  0.0527
18652SOL    HW157397   3.579   2.270   7.890  1.5301  1.6661  1.3735
18652SOL    HW257398   3.431   2.238   7.889  2.1873 -1.9461 -0.8443
18653SOL     OW57399   2.911   1.366   9.150 -0.0973  0.1846  0.1058
18653SOL    HW157400   2.844   1.306   9.182 -0.0057 -0.6992 -1.2780
18653SOL    HW257401   2.940   1.414   9.227 -0.5935 -1.1439  1.1473
18654SOL     OW57402   5.842   2.938   5.573  0.0261  0.4759  0.0353
18654SOL    HW157403   5.920   2.910   5.621 -1.0797  0.2796  1.8230
18654SOL    HW257404   5.873   3.007   5.515  1.4096  1.0339  1.3570
18655SOL     OW57405   1.319   5.097   0.952  0.4242 -0.3677 -0.4088
18655SOL    HW157406   1.287   5.147   1.027  0.8961 -0.5901 -0.0527
18655SOL    HW257407   1.344   5.164   0.888 -0.0820 -0.1795 -0.4168
18656SOL     OW57408   7.704   6.797   8.265  0.0883 -0.1528 -0.0926
18656SOL    HW157409   7.615   6.763   8.260  0.4487 -1.0759 -0.5380
18656SOL    HW257410   7.716   6.822   8.357 -1.1592  1.5355 -0.3365
18657SOL     OW57411   0.013   0.440   8.015  0.2130 -0.4789  0.0344
18657SOL    HW157412   0.043   0.494   7.943 -0.1143  0.6386  0.7211
18657SOL    HW257413   0.064   0.359   8.008  0.5249 -0.1860 -1.1412
18658SOL     OW57414   6.754   2.817  11.622 -0.0671 -0.5333  0.0227
18658SOL    HW157415   6.799   2.822  11.706  1.0541 -0.3032 -0.5622
18658SOL    HW257416   6.731   2.725  11.612  1.9245 -1.0410 -0.4477
18659SOL     OW57417   7.037   5.815   9.172  0.1549  0.2961  0.4996
18659SOL    HW157418   6.995   5.832   9.088 -0.0710 -2.2647  0.0129
18659SOL    HW257419   7.012   5.890   9.227  0.6571  2.2456 -1.7810
18660SOL     OW57420   3.120   2.668   4.543 -0.1083  0.1806  0.5142
18660SOL    HW157421   3.162   2.749   4.572  2.5609 -1.2426  0.8647
18660SOL    HW257422   3.086   2.689   4.456  0.3338  1.7389  0.6871
18661SOL     OW57423   2.288   6.882  12.312 -0.4090 -0.4237  0.0278
18661SOL    HW157424   2.304   6.958  12.256  0.2477 -1.1105 -0.7483
18661SOL    HW257425   2.272   6.810  12.251 -0.8511 -0.9488  0.7488
18662SOL     OW57426   2.621   0.192   8.492  0.3961  0.0995 -0.3078
18662SOL    HW157427   2.553   0.176   8.558  1.1079 -0.8693  0.2309
18662SOL    HW257428   2.591   0.269   8.444 -0.9376 -0.1431  0.0931
18663SOL     OW57429   2.346   5.311   2.193  0.0742  0.1939 -0.0423
18663SOL    HW157430   2.368   5.239   2.252 -0.9978 -0.1289 -0.0130
18663SOL    HW257431   2.384   5.286   2.109 -0.2318 -0.3810 -0.0137
18664SOL     OW57432   1.222   0.089   2.750 -0.8595  0.7489  0.0137
18664SOL    HW157433   1.208   0.154   2.819  0.2289  0.1570  0.8075
18664SOL    HW257434   1.314   0.065   2.757 -1.0307 -0.2412 -0.8486
18665SOL     OW57435   0.126   0.666  10.769  0.2286 -0.0462  0.1193
18665SOL    HW157436   0.078   0.637  10.691  0.3171 -0.9570  0.3954
18665SOL    HW257437   0.089   0.752  10.788  0.2921  0.2482 -0.9941
18666SOL     OW57438   1.530   0.695   5.076  0.4897  0.5298 -0.3129
18666SOL    HW157439   1.588   0.641   5.129 -1.2726 -0.2657  0.9386
18666SOL    HW257440   1.576   0.778   5.066  0.9247  0.7425  2.5810
18667SOL     OW57441   1.760   6.954   6.276 -0.0980 -0.2059 -0.6890
18667SOL    HW157442   1.811   6.874   6.290 -0.0421 -0.0808 -0.1637
18667SOL    HW257443   1.801   7.019   6.333 -0.4168  0.0800 -0.7820
18668SOL     OW57444   5.210   1.256   5.271 -0.3846  0.1881 -0.0193
18668SOL    HW157445   5.204   1.275   5.177 -0.9749  1.4457  0.2468
18668SOL    HW257446   5.275   1.319   5.304 -0.3230 -0.1167  0.4506
18669SOL     OW57447   5.966   1.951  12.303 -0.2942  0.2314  0.6557
18669SOL    HW157448   6.031   1.996  12.249 -0.8985  1.6513  1.0684
18669SOL    HW257449   5.899   2.017  12.321 -1.1989 -0.8253  1.3304
18670SOL     OW57450   2.587   1.456   0.095 -0.0054 -0.0291  0.1695
18670SOL    HW157451   2.667   1.466   0.147 -0.8176 -0.8470  1.6506
18670SOL    HW257452   2.583   1.363   0.074  1.3972  0.5411 -3.3160
18671SOL     OW57453   2.978   2.030   8.543  0.3295 -0.5175 -0.1912
18671SOL    HW157454   3.003   1.939   8.529 -1.5910 -1.3135  1.2124
18671SOL    HW257455   2.883   2.030   8.542  0.1632  0.8775  2.9086
18672SOL     OW57456   5.258   3.226   2.031 -0.0204 -0.2707 -0.1760
18672SOL    HW157457   5.237   3.133   2.024  0.2284 -0.2685 -1.1321
18672SOL    HW257458   5.295   3.236   2.118 -1.3942 -0.7888  0.4946
18673SOL     OW57459   1.572   5.561   7.062  0.5132  0.2043 -0.3559
18673SOL    HW157460   1.514   5.497   7.102 -1.0615  2.2913  0.9029
18673SOL    HW257461   1.552   5.556   6.968 -0.6913 -0.1143 -0.1032
18674SOL     OW57462   7.917   1.563   6.829  0.2069 -0.0317  0.5395
18674SOL    HW157463   7.943   1.512   6.906 -0.6959 -1.3436  0.0358
18674SOL    HW257464   7.822   1.569   6.836  0.2052  0.6713  0.0183
18675SOL     OW57465   1.126   1.687   7.856 -0.0458 -0.5825  0.0652
18675SOL    HW157466   1.202   1.646   7.896  2.4431  3.6970  0.3767
18675SOL    HW257467   1.077   1.725   7.930 -0.3570 -0.1014 -0.3791
18676SOL     OW57468   1.294   7.705   2.254 -0.1962 -0.2710  0.0388
18676SOL    HW157469   1.287   7.672   2.343 -0.7143 -0.7843 -0.1854
18676SOL    HW257470   1.335   7.633   2.205  2.4453  0.9097  0.3471
18677SOL     OW57471   5.924   1.329   9.710  0.6661  0.2056 -0.0759
18677SOL    HW157472   6.011   1.332   9.671  1.0806  0.3279  0.8384
18677SOL    HW257473   5.879   1.406   9.674  1.6318  1.3179  1.0291
18678SOL     OW57474   0.147   4.729   4.419  0.2179 -0.4103  0.1715
18678SOL    HW157475   0.111   4.672   4.351 -0.8607 -0.4267  0.7333
18678SOL    HW257476   0.183   4.804   4.372 -2.2928  0.5638 -0.3366
18679SOL     OW57477   3.422   7.184   5.764 -0.2025 -0.4160 -0.3971
18679SOL    HW157478   3.395   7.197   5.854 -1.9389 -1.1724 -0.7643
18679SOL    HW257479   3.363   7.240   5.712 -0.3523 -1.2410 -1.1533
18680SOL     OW57480   2.212   6.015   7.107 -0.1912 -0.4911 -0.4850
18680SOL    HW157481   2.157   5.977   7.176 -0.9601  0.8491 -0.3304
18680SOL    HW257482   2.300   5.980   7.124 -0.5376 -0.8341  0.6702
18681SOL     OW57483   2.251   1.023  12.067 -0.0900 -0.2952  0.0778
18681SOL    HW157484   2.235   1.019  11.973 -1.6546  0.5477  0.2760
18681SOL    HW257485   2.164   1.037  12.105  0.3558 -1.7376  1.7338
18682SOL     OW57486   0.214   6.750   4.420 -0.1301  0.0989 -0.1827
18682SOL    HW157487   0.157   6.825   4.438 -0.7107 -0.8218  2.0748
18682SOL    HW257488   0.301   6.781   4.442  0.0669  0.9865 -2.0528
18683SOL     OW57489   7.693   2.077  11.629 -0.0869  0.1342 -0.7961
18683SOL    HW157490   7.624   2.088  11.695 -0.0064  0.8742 -0.8234
18683SOL    HW257491   7.727   2.165  11.615 -0.6329  0.1099 -2.4197
18684SOL     OW57492   4.562   3.034  10.997  0.2994  0.0026  0.2941
18684SOL    HW157493   4.490   3.021  11.059 -0.2541  1.1499 -0.0755
18684SOL    HW257494   4.638   3.053  11.052  0.4081 -1.4671  0.6968
18685SOL     OW57495   3.230   3.711   4.149 -0.5641 -0.1454  0.1981
18685SOL    HW157496   3.198   3.626   4.180  0.7714 -1.0360 -0.7571
18685SOL    HW257497   3.245   3.698   4.056  1.1859  0.6364  0.3343
18686SOL     OW57498   0.276   1.764   9.048  0.4358 -0.7394 -0.5575
18686SOL    HW157499   0.208   1.698   9.061 -1.2836  0.5868 -2.2988
18686SOL    HW257500   0.268   1.789   8.956  1.7029  1.1730 -0.1966
18687SOL     OW57501   4.465   2.064   5.511 -0.3988 -0.2875 -0.0162
18687SOL    HW157502   4.398   2.073   5.443  0.2982  0.1457 -0.6509
18687SOL    HW257503   4.445   2.134   5.574 -0.3425  0.0511 -0.3734
18688SOL     OW57504   2.143   2.119   0.716  0.2956  0.2471 -0.6355
18688SOL    HW157505   2.085   2.046   0.738  1.5308 -0.0357  2.1657
18688SOL    HW257506   2.108   2.154   0.634 -0.8162 -2.9446 -1.6792
18689SOL     OW57507   7.828   7.595   7.765  0.1541  0.5505 -0.1147
18689SOL    HW157508   7.887   7.548   7.823 -1.8455 -0.1029  1.5099
18689SOL    HW257509   7.876   7.603   7.682  1.8370 -1.4017  0.6000
18690SOL     OW57510   4.268   0.174   2.630 -0.1961 -0.0317 -0.5552
18690SOL    HW157511   4.275   0.262   2.592  1.0075 -0.4177 -1.2523
18690SOL    HW257512   4.229   0.189   2.716 -0.9647  1.0767 -1.0662
18691SOL     OW57513   6.338   3.570   6.243  0.4977  0.4713 -0.1450
18691SOL    HW157514   6.301   3.569   6.155  0.2667  1.1933 -0.0628
18691SOL    HW257515   6.263   3.559   6.301  0.2534  2.7626  0.0536
18692SOL     OW57516   6.654   7.401   1.226 -0.5256  0.8528  0.0113
18692SOL    HW157517   6.582   7.400   1.289 -1.0079  0.4287 -0.5389
18692SOL    HW257518   6.723   7.450   1.270 -0.5348 -0.1575  1.2229
18693SOL     OW57519   7.101   4.287  11.141  0.2540 -0.7156 -0.4340
18693SOL    HW157520   7.059   4.248  11.218 -0.0864 -0.2698 -0.3878
18693SOL    HW257521   7.049   4.256  11.067  0.3924 -0.8916 -0.4571
18694SOL     OW57522   2.972   2.418   5.872  0.7851  0.1278 -0.9337
18694SOL    HW157523   2.973   2.322   5.870 -0.7881  0.0882 -1.3029
18694SOL    HW257524   3.023   2.444   5.796  0.3819 -0.4541 -1.4134
18695SOL     OW57525   1.750   0.272  11.955  0.3623 -0.2272  0.6401
18695SOL    HW157526   1.764   0.215  11.879  1.0765  0.3732  0.3109
18695SOL    HW257527   1.733   0.212  12.027 -1.6019 -0.7951 -0.2178
18696SOL     OW57528   4.344   3.147   8.101  0.0341  0.3381  0.4345
18696SOL    HW157529   4.287   3.193   8.163  1.6762  4.2432 -0.6643
18696SOL    HW257530   4.412   3.107   8.156 -1.8365 -1.6208  1.4844
18697SOL     OW57531   4.483   3.757   5.720  0.1161  0.2320  0.5701
18697SOL    HW157532   4.402   3.807   5.733 -0.1476 -0.1910  0.5504
18697SOL    HW257533   4.454   3.670   5.693  0.4153 -0.9949  3.7804
18698SOL     OW57534   5.638   6.117  11.468 -0.0620 -0.0780  0.1927
18698SOL    HW157535   5.610   6.165  11.390  0.6362 -0.2999 -0.2054
18698SOL    HW257536   5.592   6.159  11.540 -1.3040 -0.3506 -0.4113
18699SOL     OW57537   1.698   5.673   5.130  0.4491  0.4988 -0.2009
18699SOL    HW157538   1.610   5.709   5.133  0.4293  0.4252  0.1300
18699SOL    HW257539   1.751   5.743   5.091  0.2036  0.4518 -0.6249
18700SOL     OW57540   1.234   0.651   3.303  0.5751 -0.7707 -0.2237
18700SOL    HW157541   1.291   0.576   3.320  1.3684  0.0313  0.8647
18700SOL    HW257542   1.278   0.724   3.346 -0.9546  0.0118  0.0932
18701SOL     OW57543   5.684   3.465  10.032  0.2465 -0.6272  0.3908
18701SOL    HW157544   5.736   3.423   9.963  0.3341  0.2419 -0.0819
18701SOL    HW257545   5.607   3.499   9.987  1.0943  1.4352  0.3566
18702SOL     OW57546   7.022   7.262   1.090 -0.0028 -0.1706 -0.1606
18702SOL    HW157547   7.048   7.218   1.171 -0.5826  1.1776  0.7783
18702SOL    HW257548   7.092   7.325   1.073 -0.7814  0.8380  0.3152
18703SOL     OW57549   3.715   7.886   9.263 -0.5674  0.1167  0.2117
18703SOL    HW157550   3.796   7.836   9.270 -1.2341 -1.0040  0.2356
18703SOL    HW257551   3.663   7.857   9.339 -0.9607  0.8614  0.2326
18704SOL     OW57552   1.990   3.396  10.303 -0.3509 -0.5059  0.0834
18704SOL    HW157553   2.017   3.387  10.212 -1.4592  1.9941 -0.5865
18704SOL    HW257554   2.065   3.436  10.347 -0.0915 -1.0026  0.0942
18705SOL     OW57555   5.277   4.482   8.100 -0.4389  0.3685 -0.1591
18705SOL    HW157556   5.238   4.531   8.173 -1.0924 -0.4440  0.0502
18705SOL    HW257557   5.206   4.429   8.067  0.2404 -0.3763 -0.4441
18706SOL     OW57558   7.378   6.708   4.383 -0.2602  0.3552 -0.3179
18706SOL    HW157559   7.417   6.636   4.433  0.2805  0.2540 -0.8623
18706SOL    HW257560   7.381   6.783   4.442 -0.1081  0.1176 -0.0187
18707SOL     OW57561   1.869   5.265   7.597 -0.1788 -0.3212  0.2266
18707SOL    HW157562   1.949   5.318   7.604  0.1463 -0.9698  1.8350
18707SOL    HW257563   1.901   5.174   7.600 -1.0419 -0.5971  2.3730
18708SOL     OW57564   2.248   0.421   6.594  0.1130 -0.0758  0.3607
18708SOL    HW157565   2.194   0.381   6.663  0.6399  0.2351  0.9567
18708SOL    HW257566   2.186   0.474   6.544 -0.3903 -0.7779  0.2110
18709SOL     OW57567   7.502   6.233   5.245 -0.0882 -0.1999 -0.0571
18709SOL    HW157568   7.590   6.212   5.276 -0.6965  0.5366  2.3656
18709SOL    HW257569   7.445   6.175   5.296 -1.0062 -2.1153 -2.9764
18710SOL     OW57570   3.942   7.596   6.457 -0.3550 -0.3207 -0.3171
18710SOL    HW157571   3.853   7.596   6.492  0.0813  1.4376  0.9448
18710SOL    HW257572   3.930   7.602   6.362 -1.5941  0.5532 -0.1327
18711SOL     OW57573   0.616   3.317  11.040  0.4030 -0.3214  0.7910
18711SOL    HW157574   0.623   3.403  11.082 -0.5746 -0.0044  0.3260
18711SOL    HW257575   0.692   3.269  11.072  1.3204  0.9305  0.5415
18712SOL     OW57576   5.155   3.780   1.289 -0.6329  0.4545  0.4944
18712SOL    HW157577   5.164   3.871   1.315  0.3114  0.3589  0.5405
18712SOL    HW257578   5.070   3.775   1.246 -0.6940  1.3519  0.5010
18713SOL     OW57579   1.040   5.732   9.512 -0.7269 -0.1870  0.0293
18713SOL    HW157580   1.106   5.758   9.576 -0.9276 -1.2354  0.6822
18713SOL    HW257581   0.988   5.811   9.498 -1.2301 -0.1538  1.8337
18714SOL     OW57582   3.458   6.310   8.234 -0.1953  0.6357 -0.4022
18714SOL    HW157583   3.425   6.384   8.285  1.5523  1.9894 -1.1363
18714SOL    HW257584   3.537   6.282   8.279 -0.9206 -0.9659 -0.0363
18715SOL     OW57585   1.937   7.762   1.618 -0.5622  0.6857 -0.2379
18715SOL    HW157586   1.931   7.693   1.552 -0.4435  0.5443 -0.0983
18715SOL    HW257587   1.935   7.843   1.567  0.6861  0.5605 -0.5066
18716SOL     OW57588   3.477   1.158   0.065  0.1778 -0.5452 -0.3892
18716SOL    HW157589   3.407   1.103   0.101  0.6058 -0.6648  0.2727
18716SOL    HW257590   3.470   1.147  -0.030 -0.8774 -0.3388 -0.3489
18717SOL     OW57591   3.807   4.562   2.069 -0.4397 -0.5994  0.4777
18717SOL    HW157592   3.865   4.494   2.033  0.4161  0.5235 -0.3420
18717SOL    HW257593   3.861   4.608   2.134 -0.3542  0.5314 -0.3707
18718SOL     OW57594   6.261   6.912   3.559  0.4680  0.2956  0.3017
18718SOL    HW157595   6.186   6.864   3.595 -0.7733  1.9498  0.0866
18718SOL    HW257596   6.298   6.853   3.493 -1.2553 -0.2203 -0.2722
18719SOL     OW57597   7.863   5.981  10.600 -0.0388  0.2233 -0.4467
18719SOL    HW157598   7.832   5.930  10.525  0.5231  1.0058 -1.2298
18719SOL    HW257599   7.956   5.960  10.606  0.3917  1.7027 -1.2722
18720SOL     OW57600   3.185   3.850   7.585  0.1024 -0.2613 -0.6355
18720SOL    HW157601   3.194   3.830   7.678 -1.2035  0.6111 -0.2928
18720SOL    HW257602   3.162   3.943   7.583 -1.0123 -0.5263 -1.7419
18721SOL     OW57603   7.551   3.189  11.119 -0.1463 -0.2448 -0.3834
18721SOL    HW157604   7.632   3.148  11.091  0.4232  1.4493 -1.3665
18721SOL    HW257605   7.525   3.140  11.197  1.7673 -0.8975 -0.1039
18722SOL     OW57606   5.269   3.977   5.905  0.2953  0.3723  0.2562
18722SOL    HW157607   5.196   4.007   5.959 -1.1522 -0.0782 -1.3607
18722SOL    HW257608   5.258   4.024   5.822  0.3805 -1.5307 -0.8834
18723SOL     OW57609   3.101   5.080   9.200 -0.1344 -0.4176  0.2252
18723SOL    HW157610   3.024   5.033   9.233  0.2678 -0.7944  0.6438
18723SOL    HW257611   3.127   5.138   9.272 -0.0644 -0.2472  0.0638
18724SOL     OW57612   0.240   2.023   2.313 -0.2059 -0.4531  0.4577
18724SOL    HW157613   0.265   2.011   2.222 -0.4126  0.6105  0.2415
18724SOL    HW257614   0.145   2.011   2.314 -0.5041  1.5331  0.1269
18725SOL     OW57615   2.807   4.499   2.888 -0.0912  0.1649 -0.2019
18725SOL    HW157616   2.869   4.511   2.961  0.4049 -0.3179 -0.5367
18725SOL    HW257617   2.732   4.554   2.911 -0.1773 -0.4047  0.9425
18726SOL     OW57618   6.005   6.905   4.721  0.3361  0.3775  0.0665
18726SOL    HW157619   6.068   6.837   4.698  0.3734  0.4338  0.0024
18726SOL    HW257620   5.999   6.901   4.816  0.7820  0.6775  0.1123
18727SOL     OW57621   3.122   7.026   5.553 -0.3754 -0.2362  0.4307
18727SOL    HW157622   3.074   7.009   5.634 -0.9882 -0.2504  0.0695
18727SOL    HW257623   3.078   6.974   5.486 -0.4095  0.4281 -0.0842
18728SOL     OW57624   1.421   1.600  11.892  0.1793  0.2103 -0.4371
18728SOL    HW157625   1.430   1.634  11.981  0.9408  2.1387 -1.2006
18728SOL    HW257626   1.510   1.601  11.856 -0.0697 -0.8420 -1.1457
18729SOL     OW57627   4.922   6.638  11.197 -0.2068  0.2445 -0.2777
18729SOL    HW157628   4.828   6.619  11.203  0.1462 -1.0919  2.2621
18729SOL    HW257629   4.962   6.557  11.168  0.2096  0.7942 -1.3009
18730SOL     OW57630   0.393   6.530   0.202  0.0799  0.2832  0.0007
18730SOL    HW157631   0.409   6.485   0.119 -0.9813 -0.2350  0.0650
18730SOL    HW257632   0.423   6.469   0.269 -0.8916 -0.1460  0.0657
18731SOL     OW57633   2.826   1.110   2.509 -0.1550  0.2751 -0.2067
18731SOL    HW157634   2.760   1.125   2.577  0.3595 -0.0222  0.3667
18731SOL    HW257635   2.792   1.156   2.432 -0.9200  0.3140  0.1432
18732SOL     OW57636   6.603   4.373   4.113 -0.5332  0.1274  0.2077
18732SOL    HW157637   6.629   4.377   4.205 -0.1348 -0.2087  0.1152
18732SOL    HW257638   6.644   4.292   4.080 -3.4195 -1.6212  0.6051
18733SOL     OW57639   2.502   7.871   7.718 -0.0933 -0.4646  0.7233
18733SOL    HW157640   2.483   7.960   7.749 -1.1473 -0.7570  0.9525
18733SOL    HW257641   2.591   7.877   7.682 -0.4007  0.8450  0.1133
18734SOL     OW57642   1.350   1.750   3.356  0.2974 -0.3048 -0.2712
18734SOL    HW157643   1.340   1.700   3.275 -1.5562 -0.9265  0.2904
18734SOL    HW257644   1.287   1.822   3.347 -0.2207 -0.6107  0.7550
18735SOL     OW57645   3.458   0.070   2.282  0.3353  0.1007 -0.3430
18735SOL    HW157646   3.519  -0.003   2.272 -1.7121 -1.9127  0.7319
18735SOL    HW257647   3.382   0.031   2.327 -1.3182  2.6672 -0.7171
18736SOL     OW57648   1.685   4.903  11.341 -0.8646 -0.2425  0.1956
18736SOL    HW157649   1.727   4.822  11.371 -0.3211  0.5151  1.5366
18736SOL    HW257650   1.621   4.924  11.410 -2.1195 -0.3501 -0.8958
18737SOL     OW57651   4.849   5.542   9.341  0.5593 -0.1522  0.0804
18737SOL    HW157652   4.847   5.617   9.282  0.9600 -0.6875 -0.6259
18737SOL    HW257653   4.924   5.490   9.312 -0.8628 -1.8444 -0.7266
18738SOL     OW57654   2.998   3.451   9.795  0.3323  0.0407  0.1047
18738SOL    HW157655   3.027   3.402   9.873 -0.1912 -0.5751 -0.0786
18738SOL    HW257656   2.984   3.383   9.729 -1.5506  0.3047  0.1881
18739SOL     OW57657   7.171   6.518   9.039 -0.1779  0.1235  0.2451
18739SOL    HW157658   7.167   6.539   9.132  2.0001 -0.6757  0.5705
18739SOL    HW257659   7.080   6.499   9.015 -1.0171  1.8313  1.8039
18740SOL     OW57660   2.755   6.218   8.635  0.1344 -0.3652  0.2971
18740SOL    HW157661   2.707   6.139   8.608  0.2226 -0.3874  0.2055
18740SOL    HW257662   2.697   6.261   8.698  0.2578 -0.7111  0.6500
18741SOL     OW57663   5.144   4.485   1.805  0.1225 -0.3881 -0.0430
18741SOL    HW157664   5.191   4.425   1.747  1.7076 -1.5772  2.3011
18741SOL    HW257665   5.199   4.563   1.809 -0.2634 -0.0818 -0.5092
18742SOL     OW57666   6.771   7.349   0.987 -0.2321  0.4458  0.7538
18742SOL    HW157667   6.860   7.336   1.019 -0.3183 -0.3569  0.6877
18742SOL    HW257668   6.722   7.376   1.065  0.0665  0.8954  0.7879
18743SOL     OW57669   4.067   0.280   9.287 -0.2545  0.2001  0.3039
18743SOL    HW157670   3.974   0.298   9.273 -0.4107 -0.4698  0.4218
18743SOL    HW257671   4.082   0.197   9.240  0.1682  0.0578  0.6838
18744SOL     OW57672   6.056   5.493   9.815 -0.0025  0.2000  0.2143
18744SOL    HW157673   5.998   5.417   9.815 -0.3303  0.4474  0.8242
18744SOL    HW257674   6.051   5.526   9.725 -0.5131  0.0027  0.1658
18745SOL     OW57675   4.718   5.768   9.025  0.3754 -0.4223 -0.2414
18745SOL    HW157676   4.669   5.705   9.077 -0.8220 -0.2224 -1.0855
18745SOL    HW257677   4.657   5.795   8.956  0.5826  2.1618  0.4719
18746SOL     OW57678   0.991   4.647   5.505 -0.2248  0.3222  0.3936
18746SOL    HW157679   0.940   4.574   5.539  0.5196 -0.2548  0.3051
18746SOL    HW257680   1.067   4.652   5.563  1.0902 -0.6984 -1.1401
18747SOL     OW57681   7.207   3.509   5.565  0.0518  0.6720  0.0031
18747SOL    HW157682   7.130   3.465   5.601 -0.2114  0.4778 -0.7847
18747SOL    HW257683   7.202   3.598   5.600 -0.8084  0.8067 -0.4370
18748SOL     OW57684   2.337   7.704   0.010 -0.5091 -0.3976 -0.2135
18748SOL    HW157685   2.400   7.648   0.054  1.7861  1.6132 -0.7387
18748SOL    HW257686   2.290   7.748   0.081 -0.4014 -0.9413  0.1941
18749SOL     OW57687   7.199   5.540   2.651  0.0944 -0.2062  0.0110
18749SOL    HW157688   7.182   5.598   2.725 -1.4499 -0.2805 -0.2414
18749SOL    HW257689   7.188   5.452   2.687  2.6669 -0.4123  0.4511
18750SOL     OW57690   2.955   3.188   9.136  0.3570  0.3922  0.3768
18750SOL    HW157691   3.023   3.255   9.136  1.0456 -0.2512 -1.0393
18750SOL    HW257692   3.003   3.106   9.150 -0.3061  0.0814  0.8254
18751SOL     OW57693   5.300   2.263   0.673  0.5911 -0.0511  0.4120
18751SOL    HW157694   5.287   2.227   0.761 -1.4375  0.1741  0.2507
18751SOL    HW257695   5.364   2.333   0.685  2.2696 -1.6381  1.2478
18752SOL     OW57696   3.089   7.399   0.382  0.1847 -0.0529  0.2825
18752SOL    HW157697   3.052   7.365   0.301 -1.5971 -1.1378  1.4638
18752SOL    HW257698   3.021   7.458   0.416  1.5507  1.5952  0.2531
18753SOL     OW57699   2.258   0.550  11.310 -0.3192 -0.4181 -0.0959
18753SOL    HW157700   2.224   0.639  11.301  1.0292  0.0868 -0.3935
18753SOL    HW257701   2.203   0.511  11.378 -0.5462  0.8363  0.4782
18754SOL     OW57702   6.749   4.294   8.967  0.4382 -0.1819  0.1739
18754SOL    HW157703   6.841   4.318   8.962  0.6973 -1.1748 -0.1406
18754SOL    HW257704   6.747   4.222   9.030 -0.0349 -0.5438 -0.2455
18755SOL     OW57705   5.071   3.531   3.914 -0.1022  0.3984  0.2845
18755SOL    HW157706   5.023   3.563   3.990 -0.4080  1.7691 -0.4576
18755SOL    HW257707   5.156   3.575   3.920  0.1029  0.0225  0.1646
18756SOL     OW57708   7.929   2.380  10.103  0.4687  0.1731 -0.1986
18756SOL    HW157709   7.933   2.472  10.076 -1.8743  0.1058 -0.9725
18756SOL    HW257710   7.923   2.331  10.022 -0.6331 -0.4714  0.2464
18757SOL     OW57711   3.368   2.890  12.098 -0.0637 -0.1385  0.4581
18757SOL    HW157712   3.337   2.828  12.165 -1.3479  0.9235  0.8863
18757SOL    HW257713   3.461   2.870  12.089 -0.0735 -0.9786  1.8452
18758SOL     OW57714   1.581   2.531   4.562 -0.5559  0.2387 -0.0245
18758SOL    HW157715   1.586   2.487   4.477  0.6652 -1.8856  1.0617
18758SOL    HW257716   1.505   2.588   4.554 -2.3947 -2.1862 -1.5402
18759SOL     OW57717   5.396   0.402   7.957 -1.3441  0.2570 -0.3565
18759SOL    HW157718   5.347   0.418   7.877  1.0558  1.0623 -1.7528
18759SOL    HW257719   5.431   0.487   7.981 -0.4250 -0.3349  0.4578
18760SOL     OW57720   0.167   5.819   1.692 -0.1339  0.0150  0.0121
18760SOL    HW157721   0.216   5.761   1.751 -1.3765 -0.2398  0.8072
18760SOL    HW257722   0.117   5.759   1.636 -1.9405  0.2976  1.2755
18761SOL     OW57723   7.751   6.012   3.684  0.2794 -0.2987  0.5839
18761SOL    HW157724   7.805   6.090   3.680  0.7869 -0.6580  0.3604
18761SOL    HW257725   7.687   6.023   3.613  0.0366  0.1339  0.8633
18762SOL     OW57726   6.368   2.835   5.476 -0.0933 -0.4507  0.2171
18762SOL    HW157727   6.382   2.779   5.552  0.4180 -1.3581 -0.5292
18762SOL    HW257728   6.440   2.898   5.479  0.5136 -1.1253 -0.0796
18763SOL     OW57729   4.141   7.489   4.869  0.2870  0.3079  0.1661
18763SOL    HW157730   4.170   7.435   4.943  1.6343  1.0550  0.2125
18763SOL    HW257731   4.211   7.553   4.857  0.5810 -0.3649 -2.3421
18764SOL     OW57732   5.631   5.587   2.100  0.1332 -0.1889  0.0929
18764SOL    HW157733   5.547   5.633   2.100  0.0895 -0.2698 -0.3811
18764SOL    HW257734   5.628   5.533   2.179  0.6708  1.4809  1.3030
18765SOL     OW57735   5.075   0.314   7.292  0.0066  0.0758  0.3750
18765SOL    HW157736   5.037   0.332   7.206 -1.2287 -1.6805  0.4931
18765SOL    HW257737   5.004   0.332   7.354  0.5658  0.3576  0.9515
18766SOL     OW57738   0.710   6.290   8.273  0.0942  0.0873 -0.1782
18766SOL    HW157739   0.757   6.329   8.199  0.2621  1.3779  0.5724
18766SOL    HW257740   0.767   6.306   8.348 -1.1180  0.8952  0.6051
18767SOL     OW57741   4.815   2.746   5.991  0.1712 -0.1546  0.0071
18767SOL    HW157742   4.814   2.667   5.936  0.2480 -0.0741 -0.1102
18767SOL    HW257743   4.778   2.814   5.934  0.5443  0.0003 -0.0503
18768SOL     OW57744   7.724   1.993   4.715  0.1327 -0.0831  0.5558
18768SOL    HW157745   7.791   1.979   4.782  0.6608  0.0682  0.0637
18768SOL    HW257746   7.761   2.060   4.658 -0.2763 -0.2693  0.0682
18769SOL     OW57747   6.907   2.177  12.255 -0.0065  0.5091 -0.3059
18769SOL    HW157748   6.862   2.258  12.230 -0.1527  0.5452  0.0691
18769SOL    HW257749   6.843   2.108  12.237 -0.1424  0.5427  0.0437
18770SOL     OW57750   2.139   5.372   2.928 -0.3999 -0.0359 -0.2451
18770SOL    HW157751   2.180   5.348   3.011 -0.1424  0.4927 -0.2155
18770SOL    HW257752   2.168   5.305   2.866 -0.9048 -0.6573  0.1714
18771SOL     OW57753   7.049   7.107   7.322  0.4019  0.3233  0.0070
18771SOL    HW157754   7.088   7.173   7.379  2.3145 -0.1549 -0.6788
18771SOL    HW257755   6.999   7.156   7.258  0.3804  0.9983  0.5294
18772SOL     OW57756   3.902   1.079   5.720 -0.1468 -0.3948  1.0202
18772SOL    HW157757   3.930   1.138   5.649 -3.4107  0.0804 -0.0448
18772SOL    HW257758   3.888   0.995   5.676 -1.3231 -0.3358  1.2674
18773SOL     OW57759   7.898   5.546   7.242 -0.2934  0.2419  0.3515
18773SOL    HW157760   7.915   5.454   7.221 -3.5779 -0.6188  0.9181
18773SOL    HW257761   7.854   5.581   7.164 -1.5418  0.5116  1.1561
18774SOL     OW57762   6.170   3.808   5.173 -0.1277 -0.8343  0.2825
18774SOL    HW157763   6.251   3.807   5.121  0.4689 -1.3695  1.2036
18774SOL    HW257764   6.200   3.819   5.263 -1.1324 -0.3354  0.5588
18775SOL     OW57765   7.293   5.772  11.240  0.4299  0.7388 -0.4128
18775SOL    HW157766   7.362   5.800  11.179  0.7544  1.7347  0.3693
18775SOL    HW257767   7.293   5.677  11.234  1.8512  0.7096 -0.4800
18776SOL     OW57768   1.887   6.024   3.444 -0.6016 -0.7227 -0.4517
18776SOL    HW157769   1.846   6.089   3.387 -0.9696  0.7443  1.3906
18776SOL    HW257770   1.819   6.003   3.508  0.3768 -0.9079  0.5553
18777SOL     OW57771   2.324   6.918   0.279 -0.6012  0.2747 -0.4136
18777SOL    HW157772   2.363   6.867   0.350  1.4524  0.8113 -1.0883
18777SOL    HW257773   2.296   7.000   0.320  0.7973  0.6809 -0.2413
18778SOL     OW57774   0.191   3.575   7.875 -0.0450  0.1340  0.2528
18778SOL    HW157775   0.171   3.511   7.807  0.1204  0.0486  0.2860
18778SOL    HW257776   0.273   3.545   7.914 -0.1576  0.1623  0.5140
18779SOL     OW57777   4.838   5.121   1.955 -0.2019 -0.1901 -0.1927
18779SOL    HW157778   4.826   5.206   1.996 -0.7232  0.4027 -1.5249
18779SOL    HW257779   4.750   5.096   1.924  0.2559 -0.3729 -1.3880
18780SOL     OW57780   0.114   6.806   0.330  0.1500 -0.1327  0.6467
18780SOL    HW157781   0.066   6.804   0.246  0.0378 -0.9580  0.7188
18780SOL    HW257782   0.047   6.827   0.395 -0.0106 -0.7202  0.6765
18781SOL     OW57783   2.326   2.658   4.928 -0.0903 -0.1612 -0.5146
18781SOL    HW157784   2.361   2.748   4.927  0.6815 -0.3662  1.8709
18781SOL    HW257785   2.255   2.660   4.864  0.8466  1.7367 -1.6164
18782SOL     OW57786   5.389   5.581   9.088 -0.6212  0.5625 -0.2940
18782SOL    HW157787   5.458   5.536   9.040 -1.1809 -0.3004 -0.2938
18782SOL    HW257788   5.373   5.661   9.037  0.9286  1.1922  0.1349
18783SOL     OW57789   7.819   3.955  11.501  0.6467  0.2560 -0.8634
18783SOL    HW157790   7.741   3.983  11.452 -1.1127  1.8173  2.5211
18783SOL    HW257791   7.870   4.035  11.511  1.0637 -0.0734 -0.3426
18784SOL     OW57792   2.524   7.276   9.007  0.1656  0.4962 -1.2540
18784SOL    HW157793   2.614   7.253   8.986 -0.2184 -1.4418 -0.9664
18784SOL    HW257794   2.476   7.264   8.925 -0.3707 -1.8064 -0.6949
18785SOL     OW57795   4.253   2.307  10.733  0.3636  0.1741 -0.0380
18785SOL    HW157796   4.162   2.312  10.707  0.5211 -1.8523 -1.1475
18785SOL    HW257797   4.298   2.271  10.657  1.6016 -1.6137  1.4586
18786SOL     OW57798   3.462   4.711   3.645  0.6222  0.4641 -0.3453
18786SOL    HW157799   3.398   4.648   3.615 -0.0276  1.1484 -0.4340
18786SOL    HW257800   3.419   4.758   3.716  1.3634  0.3112  0.2240
18787SOL     OW57801   4.926   0.918  11.771 -0.4409 -0.3635 -0.1032
18787SOL    HW157802   5.010   0.940  11.811 -0.7000  0.0983  0.1960
18787SOL    HW257803   4.937   0.941  11.679 -0.6348  0.8725  0.1600
18788SOL     OW57804   7.786   0.448   6.663  0.5793 -0.1374  0.2530
18788SOL    HW157805   7.767   0.396   6.742 -2.1957 -0.3842 -0.4470
18788SOL    HW257806   7.792   0.383   6.593  2.6998  0.1103  0.1514
18789SOL     OW57807   7.762   6.363   2.857  0.0155 -0.4052 -0.1240
18789SOL    HW157808   7.848   6.397   2.832 -0.5149  0.0427 -1.4053
18789SOL    HW257809   7.765   6.271   2.830 -0.2722 -0.1229 -1.1448
18790SOL     OW57810   3.452   0.414   5.429 -0.0362  0.3772  0.6527
18790SOL    HW157811   3.544   0.400   5.407 -0.5514 -0.0193 -1.4506
18790SOL    HW257812   3.404   0.368   5.361 -1.7917  2.3948  0.4435
18791SOL     OW57813   6.791   0.488   6.600 -0.0014  0.2947  0.1299
18791SOL    HW157814   6.734   0.564   6.607 -0.8369 -0.3136  0.0753
18791SOL    HW257815   6.825   0.491   6.511 -0.5743  0.2297 -0.0918
18792SOL     OW57816   6.677   2.565   8.922  0.0515  0.0348 -0.6588
18792SOL    HW157817   6.681   2.470   8.922  0.4807  0.0390  0.6568
18792SOL    HW257818   6.585   2.586   8.936 -0.2644 -0.1613 -2.2620
18793SOL     OW57819   4.168   1.198  10.323  0.3046  0.0779  0.4509
18793SOL    HW157820   4.204   1.181  10.236  0.6423 -1.3373  0.8496
18793SOL    HW257821   4.244   1.221  10.377  0.1122  0.8221  0.4259
18794SOL     OW57822   0.207   7.625   5.742 -0.4206  0.0362  0.2408
18794SOL    HW157823   0.195   7.613   5.648 -2.2294  1.7127  0.1846
18794SOL    HW257824   0.142   7.567   5.782 -0.9556  0.7113  0.3695
18795SOL     OW57825   5.521   6.908  11.436 -0.6224 -0.0530  0.2327
18795SOL    HW157826   5.564   6.989  11.409  0.1319 -0.1935  0.9928
18795SOL    HW257827   5.448   6.938  11.491 -0.3668  0.1082  0.4843
18796SOL     OW57828   7.649   4.402  10.393  0.0314 -0.6042  0.2925
18796SOL    HW157829   7.741   4.408  10.366  0.5253  2.3218  2.1191
18796SOL    HW257830   7.599   4.418  10.313  1.2772  1.3076 -0.1830
18797SOL     OW57831   4.792   1.447   0.488 -0.6864  0.2336 -0.2889
18797SOL    HW157832   4.809   1.489   0.403  1.1367  0.3789  0.1061
18797SOL    HW257833   4.864   1.476   0.544 -0.7321 -1.4527  0.7172
18798SOL     OW57834   5.026   6.237   8.018  0.4614  0.0071 -0.0104
18798SOL    HW157835   5.047   6.307   7.956 -0.1288  0.1484 -0.0500
18798SOL    HW257836   4.932   6.244   8.032  0.4513 -0.5729  0.2429
18799SOL     OW57837   4.558   5.606   3.017  0.2265 -0.3289 -0.3248
18799SOL    HW157838   4.515   5.649   2.943 -1.5426  0.4453  1.0722
18799SOL    HW257839   4.515   5.521   3.023 -1.2509  0.4645  1.1039
18800SOL     OW57840   6.804   0.233   6.690  0.2416  0.1209  0.6981
18800SOL    HW157841   6.746   0.228   6.766  0.2859  0.2876  0.7431
18800SOL    HW257842   6.821   0.326   6.678  0.1930  0.0995  0.4517
18801SOL     OW57843   0.763   2.267  10.982  0.2528  0.6284 -0.4201
18801SOL    HW157844   0.728   2.356  10.980 -1.3259  0.0450 -0.2484
18801SOL    HW257845   0.856   2.277  10.963  0.7005  2.6078  2.2232
18802SOL     OW57846   4.982   5.391  10.604 -0.4223 -0.2207 -0.0285
18802SOL    HW157847   5.070   5.353  10.598 -0.7550 -0.9831 -0.1166
18802SOL    HW257848   4.980   5.457  10.535  0.4551  0.5906  0.6728
18803SOL     OW57849   3.474   2.727   7.909  0.0835 -0.1754  0.1316
18803SOL    HW157850   3.460   2.810   7.954  0.1888 -0.4066  0.6058
18803SOL    HW257851   3.556   2.693   7.946 -0.8736 -1.3508  1.3072
18804SOL     OW57852   2.110   1.543   0.042  0.3003 -0.3751  0.3074
18804SOL    HW157853   2.195   1.571   0.007  0.8610 -2.6324 -0.3609
18804SOL    HW257854   2.068   1.498  -0.032 -0.9662 -0.3276  0.9726
18805SOL     OW57855   3.563   5.680   4.829  0.1425  0.4377 -0.5181
18805SOL    HW157856   3.613   5.748   4.785 -0.5797  1.3324  0.0176
18805SOL    HW257857   3.622   5.645   4.895 -0.2361  2.1974  0.8161
18806SOL     OW57858   4.089   3.314  12.363  0.0653  0.6540 -0.2533
18806SOL    HW157859   4.181   3.310  12.335 -0.6810  0.8336 -2.9582
18806SOL    HW257860   4.039   3.285  12.287 -2.1558  0.5985  1.1468
18807SOL     OW57861   7.923   1.860  12.436  0.2760  0.2689  0.5645
18807SOL    HW157862   7.957   1.861  12.525 -0.2957  0.4299  0.7830
18807SOL    HW257863   7.993   1.821  12.384  0.1863 -0.8582  1.2570
18808SOL     OW57864   1.921   2.202   3.575 -0.6335 -0.0885  0.1055
18808SOL    HW157865   1.825   2.202   3.581 -0.5341  0.9764  3.6708
18808SOL    HW257866   1.950   2.154   3.653  1.8148 -1.4725 -1.5196
18809SOL     OW57867   4.287   0.713   3.114  0.7786 -0.0080 -0.1331
18809SOL    HW157868   4.344   0.763   3.173  1.3879  0.9177 -1.4543
18809SOL    HW257869   4.202   0.712   3.157  1.5590 -0.6400  1.4597
18810SOL     OW57870   1.717   3.177   1.915  0.1784 -0.2642 -0.0288
18810SOL    HW157871   1.801   3.132   1.929 -0.9179 -2.3533  0.3187
18810SOL    HW257872   1.737   3.247   1.853  2.0976 -0.9986 -0.3036
18811SOL     OW57873   4.309   5.396   1.742  0.3943 -0.3473  0.3019
18811SOL    HW157874   4.259   5.378   1.662 -0.4313 -0.2973  0.7910
18811SOL    HW257875   4.335   5.488   1.734 -0.3929 -0.1017  0.4525
18812SOL     OW57876   0.338   3.988   9.378  0.5783  0.2389  0.2483
18812SOL    HW157877   0.281   4.031   9.441 -0.4296 -1.2119  0.3678
18812SOL    HW257878   0.364   3.906   9.421 -1.4403 -1.5731 -1.7644
18813SOL     OW57879   6.877   2.877   3.376  0.4125 -0.4321 -0.3619
18813SOL    HW157880   6.782   2.862   3.380  0.5457 -1.1083  0.8185
18813SOL    HW257881   6.893   2.945   3.440  0.5129  1.0953 -1.9384
18814SOL     OW57882   5.823   0.730   4.882 -0.4484  0.0163 -0.9772
18814SOL    HW157883   5.789   0.784   4.811 -1.1323 -1.6636 -1.9817
18814SOL    HW257884   5.793   0.642   4.862  0.8585 -0.8105  0.4575
18815SOL     OW57885   6.941   7.235   5.326  0.3220 -0.5323  0.4711
18815SOL    HW157886   6.879   7.162   5.322 -1.7999  1.2306 -0.2869
18815SOL    HW257887   6.985   7.233   5.241  0.2458 -0.8956  0.4362
18816SOL     OW57888   1.761   4.470   1.676 -0.1560  0.1719 -0.1906
18816SOL    HW157889   1.825   4.462   1.605  0.4861 -0.1530  0.4153
18816SOL    HW257890   1.677   4.450   1.634  0.0594  1.1009 -1.1063
18817SOL     OW57891   3.671   1.981   8.514 -1.0253  0.2322  0.0643
18817SOL    HW157892   3.655   1.928   8.436  1.4986  0.4708 -0.7126
18817SOL    HW257893   3.710   2.062   8.481  2.4213 -0.6180  1.5945
18818SOL     OW57894   3.686   4.855   6.740 -0.2869  0.1108 -0.6499
18818SOL    HW157895   3.670   4.861   6.834 -0.6651 -0.8396 -0.6490
18818SOL    HW257896   3.761   4.796   6.732 -0.1898  0.2696 -0.9449
18819SOL     OW57897   1.352   5.386   6.067 -0.2315  0.2042 -0.1118
18819SOL    HW157898   1.401   5.443   6.007  2.2533 -1.3928  0.2674
18819SOL    HW257899   1.367   5.424   6.154 -0.2769  0.1046 -0.0607
18820SOL     OW57900   6.347   6.250   0.269 -0.0816  0.9091  0.1119
18820SOL    HW157901   6.439   6.270   0.255  0.0303  0.5667  0.3192
18820SOL    HW257902   6.345   6.209   0.356 -0.4694  1.1782  0.2327
18821SOL     OW57903   7.808   0.574   4.416 -0.6772 -0.4555 -0.2040
18821SOL    HW157904   7.747   0.638   4.380 -0.4163  0.0780  0.2759
18821SOL    HW257905   7.849   0.533   4.340 -0.3103  0.4796 -0.5236
18822SOL     OW57906   3.097   0.036   0.413 -0.2675  0.1427  0.2971
18822SOL    HW157907   3.136  -0.040   0.455 -0.9795 -0.8033 -0.7021
18822SOL    HW257908   3.081   0.009   0.323  1.3880  2.1811 -0.6873
18823SOL     OW57909   4.006   2.061   3.950  0.3033  0.2520 -0.1418
18823SOL    HW157910   4.001   2.155   3.933 -2.2273  0.0749 -0.7718
18823SOL    HW257911   3.978   2.052   4.042 -0.8884  0.0519 -0.5004
18824SOL     OW57912   0.169   4.960   0.394  0.6220  0.1852 -0.0688
18824SOL    HW157913   0.263   4.976   0.387  0.6997 -0.3138 -0.1866
18824SOL    HW257914   0.154   4.880   0.343 -0.2377  1.5575 -2.1227
18825SOL     OW57915   4.148   7.402  10.255 -0.0807  0.1708 -0.1667
18825SOL    HW157916   4.074   7.407  10.194  1.0825  0.5322 -1.6109
18825SOL    HW257917   4.109   7.372  10.337 -1.6953 -0.4728 -1.1111
18826SOL     OW57918   5.592   6.096   8.610 -0.5485  0.2362  0.1541
18826SOL    HW157919   5.672   6.082   8.559 -0.9018 -0.0420 -0.3399
18826SOL    HW257920   5.524   6.053   8.558 -0.7638 -0.9220  1.3393
18827SOL     OW57921   7.373   5.104   8.214 -0.0966 -0.0340  1.0079
18827SOL    HW157922   7.458   5.071   8.241 -0.4690 -1.3759  0.6371
18827SOL    HW257923   7.346   5.164   8.284  1.2170  0.5565  1.0296
18828SOL     OW57924   2.837   7.843   1.739 -0.0457  0.3622 -0.6982
18828SOL    HW157925   2.926   7.833   1.703 -0.3054  0.7564 -1.4734
18828SOL    HW257926   2.846   7.910   1.806  0.2798  0.2456 -0.6188
18829SOL     OW57927   2.808   6.597   1.241 -0.3225  0.1956 -0.0266
18829SOL    HW157928   2.773   6.524   1.190  1.1412 -0.8390  0.3972
18829SOL    HW257929   2.854   6.651   1.177 -1.1182  0.5916 -0.2826
18830SOL     OW57930   5.335   6.527   4.340 -0.2395  0.2316  0.0967
18830SOL    HW157931   5.320   6.531   4.434  1.7040  4.0317  0.4348
18830SOL    HW257932   5.420   6.485   4.330 -1.5254 -2.5185 -0.3006
18831SOL     OW57933   6.974   7.787   3.874  0.1975 -0.2383  0.3892
18831SOL    HW157934   7.006   7.834   3.951  0.7685 -0.6063  0.3775
18831SOL    HW257935   6.938   7.855   3.818  0.9491  0.1749  0.4055
18832SOL     OW57936   4.959   5.722   4.860  0.1076  0.5954  0.0164
18832SOL    HW157937   4.955   5.626   4.859  0.1504  0.5957 -0.4947
18832SOL    HW257938   4.870   5.750   4.837  0.6843  0.6528 -2.3981
18833SOL     OW57939   1.511   7.066   3.105  0.5916  0.1657  0.1152
18833SOL    HW157940   1.433   7.118   3.086 -0.8656 -2.5481 -2.1191
18833SOL    HW257941   1.493   7.025   3.189  0.3449  0.8386  0.3896
18834SOL     OW57942   4.714   6.222   9.558  0.2063  0.1369 -0.2097
18834SOL    HW157943   4.642   6.279   9.531  0.0966  0.9149  1.5419
18834SOL    HW257944   4.792   6.267   9.527  0.0551  0.6398  0.1191
18835SOL     OW57945   7.492   3.562   4.399  0.1211 -0.3852  0.1932
18835SOL    HW157946   7.486   3.477   4.443 -0.0708 -0.5379 -0.1187
18835SOL    HW257947   7.575   3.558   4.351  0.3770 -0.1819  0.6084
18836SOL     OW57948   5.107   1.427   4.715  0.0274  0.1095 -0.1276
18836SOL    HW157949   5.155   1.510   4.721  1.8463 -0.7050 -2.0492
18836SOL    HW257950   5.134   1.390   4.631 -2.2658 -1.5322 -0.2225
18837SOL     OW57951   1.915   3.362   3.540  0.0427 -0.3864 -0.3193
18837SOL    HW157952   1.870   3.445   3.529  1.9752  0.6609 -0.9158
18837SOL    HW257953   1.955   3.368   3.628 -1.2580 -1.4696  0.3777
18838SOL     OW57954   7.729   4.101   0.524 -0.0493  0.1792  0.0789
18838SOL    HW157955   7.671   4.149   0.582 -0.0796 -0.1749  0.3502
18838SOL    HW257956   7.672   4.038   0.479  0.2482 -0.8472  1.0681
18839SOL     OW57957   6.256   1.456   7.447  0.0811  0.3825  0.4493
18839SOL    HW157958   6.308   1.530   7.477  0.0329  0.5015  0.2389
18839SOL    HW257959   6.223   1.482   7.361  2.0619 -0.8578 -0.7442
18840SOL     OW57960   6.883   2.171   2.207 -0.0708 -0.1355 -0.2815
18840SOL    HW157961   6.944   2.184   2.279  1.0515  0.7768 -1.3422
18840SOL    HW257962   6.829   2.250   2.206 -1.5314 -1.0580  0.8298
18841SOL     OW57963   2.474   2.221   8.507  0.5591 -0.0972 -0.2566
18841SOL    HW157964   2.387   2.198   8.540  1.4878 -0.8383  1.8250
18841SOL    HW257965   2.496   2.302   8.552  1.9337 -1.2252  1.2267
18842SOL     OW57966   3.227   5.263  12.320 -0.0499 -0.3978  0.1050
18842SOL    HW157967   3.248   5.195  12.257 -0.6752 -0.3509 -0.1676
18842SOL    HW257968   3.243   5.223  12.405  0.7684 -0.4696 -0.0786
18843SOL     OW57969   3.549   7.195  12.153  0.2257 -0.7103 -0.1579
18843SOL    HW157970   3.589   7.258  12.092 -0.6283  0.0695  0.0615
18843SOL    HW257971   3.497   7.137  12.098  0.1615 -0.5550 -0.2613
18844SOL     OW57972   0.049   5.419   7.662  0.0742  0.1609  0.0429
18844SOL    HW157973  -0.025   5.440   7.720 -0.9903 -1.5122 -0.6141
18844SOL    HW257974   0.120   5.474   7.693 -0.4262 -0.6404  2.9646
18845SOL     OW57975   0.401   6.458   4.432  0.0532 -0.2342  0.5746
18845SOL    HW157976   0.465   6.430   4.498  1.1432  2.1202  0.5977
18845SOL    HW257977   0.387   6.551   4.450 -0.2291  0.2977 -2.0037
18846SOL     OW57978   1.135   3.495   1.289  0.2168 -0.4141  0.0127
18846SOL    HW157979   1.078   3.445   1.348 -0.6791 -1.2337 -1.4687
18846SOL    HW257980   1.181   3.557   1.346  1.1060 -2.6483  1.9049
18847SOL     OW57981   2.086   0.924   6.517 -0.4098 -0.1104 -0.7685
18847SOL    HW157982   2.111   1.007   6.475  1.2696 -0.3996 -0.4030
18847SOL    HW257983   2.041   0.951   6.596  1.3577  0.5276  0.0835
18848SOL     OW57984   7.469   4.738   0.530  0.8843 -0.5476  0.3686
18848SOL    HW157985   7.452   4.811   0.470 -0.1645 -1.2706 -0.2242
18848SOL    HW257986   7.560   4.714   0.512  1.1037  0.3207  0.2541
18849SOL     OW57987   5.338   4.543   5.240 -0.0398 -0.0561 -0.2644
18849SOL    HW157988   5.268   4.486   5.272  1.1071 -0.5170  1.6121
18849SOL    HW257989   5.395   4.556   5.316  1.0898  1.5709 -1.3089
18850SOL     OW57990   0.421   0.482  10.498  0.2548  0.3671  0.0288
18850SOL    HW157991   0.508   0.516  10.519  1.1096 -1.3606 -0.5095
18850SOL    HW257992   0.429   0.387  10.509 -1.6749  0.1926  0.3221
18851SOL     OW57993   7.283   2.589   6.849 -0.3230 -0.4128 -0.3996
18851SOL    HW157994   7.292   2.653   6.779 -1.7179 -0.1462 -0.3716
18851SOL    HW257995   7.325   2.510   6.815  0.0877  0.0789 -1.0432
18852SOL     OW57996   4.144   4.135   6.056  0.2904  0.3139 -0.2176
18852SOL    HW157997   4.071   4.172   6.007 -0.6573 -1.1432  0.0134
18852SOL    HW257998   4.106   4.062   6.104  2.1783 -1.5388 -1.3362
18853SOL     OW57999   6.001   3.436  11.572  0.3786  0.5261 -0.3086
18853SOL    HW158000   5.919   3.387  11.569  1.1972 -0.8829 -2.7086
18853SOL    HW258001   5.975   3.525  11.594 -1.7105 -0.0465 -0.2530
18854SOL     OW58002   7.256   0.618   0.118 -0.3311 -0.5735 -0.4521
18854SOL    HW158003   7.317   0.544   0.114 -0.5111 -0.8794  1.4629
18854SOL    HW258004   7.276   0.670   0.040  2.1875 -0.8100 -0.0547
18855SOL     OW58005   3.807   5.031   7.802  0.0736  0.5024  0.0547
18855SOL    HW158006   3.838   5.037   7.893 -0.4895  0.2033  0.2714
18855SOL    HW258007   3.881   5.062   7.750  1.0450 -0.9574  0.5007
18856SOL     OW58008   6.704   2.106   7.932 -0.6803 -0.0984  0.5842
18856SOL    HW158009   6.793   2.139   7.921 -0.9757  0.8367  0.8594
18856SOL    HW258010   6.675   2.145   8.015 -1.7580  0.5993 -0.0935
18857SOL     OW58011   6.899   0.548   7.857 -0.4469 -0.0054 -0.5380
18857SOL    HW158012   6.889   0.563   7.763 -0.1333  1.4676 -0.3530
18857SOL    HW258013   6.895   0.635   7.897 -2.2402 -0.7052  0.9850
18858SOL     OW58014   1.639   2.696   0.856  0.1121  0.4332 -0.0387
18858SOL    HW158015   1.725   2.690   0.814 -0.0275  1.1232 -0.4536
18858SOL    HW258016   1.630   2.789   0.876 -0.4304  0.3203  0.2370
18859SOL     OW58017   4.269   2.372  11.955  0.5822 -0.4368  0.1607
18859SOL    HW158018   4.361   2.368  11.929  0.5349 -0.1111 -0.0518
18859SOL    HW258019   4.259   2.459  11.994  0.2134 -0.2359 -0.3774
18860SOL     OW58020   3.107   4.027  10.083  0.5375 -0.0698 -0.3994
18860SOL    HW158021   3.040   4.038  10.150 -0.1671  1.3591 -1.2755
18860SOL    HW258022   3.133   3.936  10.090 -0.9738 -0.4806  0.4628
18861SOL     OW58023   0.239   2.163   3.756  0.2151  0.4412  0.4220
18861SOL    HW158024   0.327   2.159   3.792  0.2730 -0.9206  0.1616
18861SOL    HW258025   0.233   2.250   3.716  0.9619  1.0568  1.5989
18862SOL     OW58026   6.626   3.821  10.638 -0.9340  0.3565 -0.1828
18862SOL    HW158027   6.622   3.870  10.720 -0.6505 -0.7507  0.5024
18862SOL    HW258028   6.539   3.784  10.627 -0.3531 -1.3579  0.7947
18863SOL     OW58029   1.986   0.184   5.201  0.1356 -0.1017 -0.5955
18863SOL    HW158030   1.967   0.100   5.242 -0.9011  0.5480  0.3044
18863SOL    HW258031   2.038   0.162   5.124  2.7394 -1.3010  1.3867
18864SOL     OW58032   3.342   5.161  12.078 -0.7278 -0.3031 -0.0390
18864SOL    HW158033   3.384   5.238  12.041 -1.6059  0.4310  0.4436
18864SOL    HW258034   3.273   5.138  12.016 -0.0474 -1.1228 -0.5157
18865SOL     OW58035   2.432   7.177   4.031 -0.1816 -0.1624 -0.1101
18865SOL    HW158036   2.395   7.265   4.029  1.9370  0.7828  0.0532
18865SOL    HW258037   2.479   7.172   4.114  1.5016 -0.6506 -1.0463
18866SOL     OW58038   5.050   0.392   0.267 -0.0875  0.3856 -0.2128
18866SOL    HW158039   5.115   0.383   0.197  2.1599  1.1160  1.6584
18866SOL    HW258040   5.068   0.319   0.326 -0.6193  0.8835  0.5802
18867SOL     OW58041   4.216   7.197   1.874  0.5418 -0.2908 -0.7198
18867SOL    HW158042   4.172   7.271   1.834  0.4731 -0.1057 -0.3065
18867SOL    HW258043   4.309   7.211   1.856  0.6955  0.7445  0.7123
18868SOL     OW58044   6.233   4.633  12.101 -0.4456 -0.1832 -0.4129
18868SOL    HW158045   6.143   4.624  12.070 -0.4369 -0.2283 -0.4246
18868SOL    HW258046   6.286   4.634  12.021 -0.5381  1.1660 -0.4938
18869SOL     OW58047   2.366   4.691   9.534  0.6989  0.5123  0.2002
18869SOL    HW158048   2.296   4.631   9.561  0.8388 -0.0501 -0.6518
18869SOL    HW258049   2.430   4.635   9.490  0.8256  1.2956 -0.6278
18870SOL     OW58050   2.239   7.599   0.344 -0.4081  0.5895 -0.1061
18870SOL    HW158051   2.219   7.688   0.315 -0.1801  1.1326  1.3488
18870SOL    HW258052   2.221   7.599   0.438 -0.7945 -1.0205 -0.1466
18871SOL     OW58053   7.498   3.491   5.401 -0.1139 -0.3095 -0.1165
18871SOL    HW158054   7.430   3.520   5.462  0.1875  0.5168 -0.1591
18871SOL    HW258055   7.452   3.434   5.339 -0.8834  0.6261 -0.4398
18872SOL     OW58056   0.920   7.558   2.277 -0.1297  0.1199  0.0710
18872SOL    HW158057   0.948   7.475   2.315  1.1513  0.7059  0.4641
18872SOL    HW258058   0.854   7.534   2.212 -0.3836 -1.1210  0.7670
18873SOL     OW58059   1.025   4.595  11.896 -0.3983 -0.5785 -0.2827
18873SOL    HW158060   0.999   4.523  11.838 -1.8789 -0.2659 -0.0350
18873SOL    HW258061   0.943   4.635  11.923  0.3680  0.6095  0.3619
18874SOL     OW58062   3.331   6.457   4.841  0.0531 -0.1835 -0.0298
18874SOL    HW158063   3.324   6.552   4.850 -2.3828 -0.0574 -2.2634
18874SOL    HW258064   3.262   6.423   4.898  1.7075 -0.7921  1.7482
18875SOL     OW58065   3.037   2.990  10.050 -0.2022  0.9047 -0.1576
18875SOL    HW158066   3.041   3.009  10.143  0.8863  0.9289 -0.2001
18875SOL    HW258067   2.943   2.979  10.032 -0.3676 -0.2652  1.1740
18876SOL     OW58068   3.090   3.317  10.591 -0.2255 -0.2714  0.5739
18876SOL    HW158069   3.139   3.278  10.519  1.0557 -0.0340  1.2860
18876SOL    HW258070   3.121   3.272  10.669 -0.8416  0.1891  1.0989
18877SOL     OW58071   7.954   7.064   7.104 -0.2819  0.1695  0.0593
18877SOL    HW158072   8.028   7.019   7.065  0.5540  1.6057 -0.1016
18877SOL    HW258073   7.884   7.057   7.040  0.1356 -0.0778 -0.3707
18878SOL     OW58074   2.112   4.059  11.546  0.2758  0.0879 -0.3979
18878SOL    HW158075   2.020   4.065  11.572  0.5192 -0.6269  0.6949
18878SOL    HW258076   2.145   3.983  11.593  1.9111  1.4047  0.7200
18879SOL     OW58077   1.314   5.157   4.836 -0.3467  0.3337  0.1630
18879SOL    HW158078   1.392   5.202   4.803  0.2747  0.0127  1.1378
18879SOL    HW258079   1.250   5.164   4.765  0.6519  0.3963 -0.7547
18880SOL     OW58080   0.113   1.138   4.532 -0.1010 -0.6209  0.0138
18880SOL    HW158081   0.021   1.150   4.509  0.0518  1.4856  0.2752
18880SOL    HW258082   0.122   1.044   4.546 -1.9949 -0.9952 -0.8702
18881SOL     OW58083   7.106   2.214   5.564  0.6594 -0.7452  0.5217
18881SOL    HW158084   7.043   2.148   5.591  0.8562 -1.6376 -1.1213
18881SOL    HW258085   7.054   2.284   5.526  0.5660 -0.7864  0.5741
18882SOL     OW58086   2.466   0.046   2.834 -0.1981 -0.4484  0.3676
18882SOL    HW158087   2.384   0.094   2.831 -0.2111 -0.4564  0.5541
18882SOL    HW258088   2.481   0.017   2.744 -1.2930 -1.9541  0.6413
18883SOL     OW58089   0.139   4.448   6.729  0.3770  0.1914  0.5286
18883SOL    HW158090   0.087   4.368   6.718 -0.3214  0.7721 -0.5631
18883SOL    HW258091   0.230   4.419   6.724  0.1278 -0.4152 -0.8830
18884SOL     OW58092   2.330   4.541   2.977 -0.0502 -0.3846  0.1256
18884SOL    HW158093   2.356   4.451   2.998 -0.5847 -0.3837  0.8080
18884SOL    HW258094   2.331   4.587   3.061 -0.9604 -0.0595 -0.0354
18885SOL     OW58095   6.678   6.975  10.313 -0.0611 -0.0268 -0.1575
18885SOL    HW158096   6.765   6.949  10.283  0.4654 -0.2554  1.4720
18885SOL    HW258097   6.692   7.060  10.356 -0.2551 -0.9005  1.7464
18886SOL     OW58098   7.795   2.622   5.920  0.3397 -0.0094 -0.1074
18886SOL    HW158099   7.753   2.643   6.003 -1.0135 -0.2914 -0.6969
18886SOL    HW258100   7.754   2.680   5.856  0.5689 -0.5535 -0.7672
18887SOL     OW58101   3.870   5.826  10.678 -0.7702 -0.1274 -0.4950
18887SOL    HW158102   3.876   5.805  10.584  0.2709 -1.0690 -0.2408
18887SOL    HW258103   3.958   5.810  10.711 -0.8381  1.3208  0.4386
18888SOL     OW58104   6.711   2.954  12.310 -0.1221 -0.0806  0.2193
18888SOL    HW158105   6.745   2.941  12.399  0.2586  1.5253  0.3326
18888SOL    HW258106   6.778   3.005  12.265 -0.5388 -0.4475 -0.8485
18889SOL     OW58107   6.817   6.162  11.648 -0.2582 -0.1632 -0.0821
18889SOL    HW158108   6.895   6.204  11.683 -0.4493  0.7813 -0.7518
18889SOL    HW258109   6.751   6.173  11.716  0.5859 -2.4027  1.1978
18890SOL     OW58110   7.863   1.734   9.556  0.3918 -0.0053 -0.3817
18890SOL    HW158111   7.800   1.709   9.624 -1.1983  0.8707 -1.4515
18890SOL    HW258112   7.945   1.693   9.583 -0.8842 -2.1330  0.5049
18891SOL     OW58113   7.315   1.778   4.128  0.5610 -0.1307 -0.2868
18891SOL    HW158114   7.307   1.872   4.114 -1.9077  0.2704  2.7575
18891SOL    HW258115   7.378   1.769   4.199  1.7045 -0.9222 -1.3575
18892SOL     OW58116   6.969   5.885   7.498 -0.1995  0.2352 -0.1761
18892SOL    HW158117   7.007   5.970   7.522 -0.3905  0.0726  0.7558
18892SOL    HW258118   7.033   5.821   7.530  0.0659  0.0255 -1.1029
18893SOL     OW58119   7.601   5.922   8.840 -0.1905 -0.1923 -0.2419
18893SOL    HW158120   7.684   5.918   8.793  0.7306 -0.4990  1.3435
18893SOL    HW258121   7.605   5.852   8.904 -1.6039 -0.0965  0.0035
18894SOL     OW58122   1.974   7.229   8.920 -0.3658 -0.0997  0.3076
18894SOL    HW158123   1.973   7.224   9.015 -0.1771  2.4608  0.5001
18894SOL    HW258124   1.920   7.305   8.899 -0.1093 -0.3891 -1.6240
18895SOL     OW58125   1.839   1.140   1.696 -0.2054 -0.5745  0.3744
18895SOL    HW158126   1.810   1.064   1.747 -0.0244 -0.6427  0.3764
18895SOL    HW258127   1.919   1.170   1.741 -0.2576 -0.4034  0.3547
18896SOL     OW58128   2.888   4.523   3.962 -0.2439 -0.1010  0.4289
18896SOL    HW158129   2.853   4.449   4.013  2.9529  0.0815  3.1769
18896SOL    HW258130   2.951   4.565   4.020  2.2427  1.4111 -3.0445
18897SOL     OW58131   2.991   4.673   9.452 -0.1596  0.8106  0.0245
18897SOL    HW158132   2.924   4.680   9.520 -0.4912 -0.4187 -0.1579
18897SOL    HW258133   2.997   4.579   9.433  2.8661  0.6278  1.2881
18898SOL     OW58134   6.264   2.654   1.811  0.0246  0.0118 -0.1453
18898SOL    HW158135   6.226   2.665   1.724 -1.3713 -1.0748  0.2953
18898SOL    HW258136   6.328   2.584   1.800 -0.5401 -0.5068 -0.2032
18899SOL     OW58137   0.621   3.504   8.327  0.2045  0.0913  0.0680
18899SOL    HW158138   0.561   3.430   8.334 -0.2275  0.5201  1.0454
18899SOL    HW258139   0.708   3.464   8.321 -0.0263 -0.4973  0.5757
18900SOL     OW58140   4.164   1.630   3.788 -0.1206 -0.3338  0.2160
18900SOL    HW158141   4.152   1.720   3.759 -1.1208 -1.2262 -2.4385
18900SOL    HW258142   4.131   1.629   3.878 -1.6011  1.6097 -0.2385
18901SOL     OW58143   7.058   6.271  10.295  0.4430 -0.3560  0.3136
18901SOL    HW158144   7.090   6.237  10.378 -0.0576 -0.2584  0.5485
18901SOL    HW258145   7.085   6.362  10.294  2.0380 -0.7995 -0.4436
18902SOL     OW58146   1.782   5.504  11.417  0.1080  0.6171 -0.1520
18902SOL    HW158147   1.843   5.499  11.491 -0.2005  0.7930  0.1191
18902SOL    HW258148   1.792   5.593  11.384 -0.2465  0.7588  0.1111
18903SOL     OW58149   5.600   2.316   1.079  0.3932 -0.3078 -0.2932
18903SOL    HW158150   5.642   2.332   0.995  0.9418 -0.5629 -0.0729
18903SOL    HW258151   5.613   2.222   1.095  0.5471 -0.2043  0.2129
18904SOL     OW58152   3.327   7.971   2.917 -0.0425  0.2755  0.3092
18904SOL    HW158153   3.246   7.983   2.967  0.2613  0.4545  0.7638
18904SOL    HW258154   3.324   8.040   2.850  0.2047  0.9182  0.9497
18905SOL     OW58155   7.823   6.769   7.138 -0.2450  0.4102  0.3799
18905SOL    HW158156   7.811   6.743   7.230  0.7857 -0.3948  0.3011
18905SOL    HW258157   7.911   6.739   7.116 -1.3152 -1.5866 -1.5923
18906SOL     OW58158   1.328   4.663   4.480  0.5608  0.3374  0.2000
18906SOL    HW158159   1.400   4.640   4.539  0.4266  2.0050  1.0582
18906SOL    HW258160   1.267   4.590   4.486  0.2078  0.7684  2.7054
18907SOL     OW58161   4.552   5.951   5.727 -0.6097  0.1537 -0.4781
18907SOL    HW158162   4.582   5.879   5.783  2.6771  1.5028 -0.2667
18907SOL    HW258163   4.468   5.921   5.692  0.2736 -3.4903  0.0982
18908SOL     OW58164   0.345   3.454   3.784 -0.3995 -0.5122  0.0960
18908SOL    HW158165   0.280   3.399   3.827  0.1560 -0.5216  0.9554
18908SOL    HW258166   0.309   3.542   3.788 -0.5700 -0.5848  0.1562
18909SOL     OW58167   6.855   1.315   0.348  0.1132  0.2701  0.0521
18909SOL    HW158168   6.848   1.234   0.399  0.4002  0.3213  0.1746
18909SOL    HW258169   6.943   1.313   0.313 -0.7526 -0.8232 -2.2463
18910SOL     OW58170   3.972   7.716   6.729 -0.5222  0.1099  0.3459
18910SOL    HW158171   3.961   7.680   6.641 -0.0179 -0.4415  0.4985
18910SOL    HW258172   4.007   7.643   6.780 -3.3274 -0.4336  1.6969
18911SOL     OW58173   0.544   6.678  10.062 -0.9126  0.1830  0.4350
18911SOL    HW158174   0.552   6.752  10.121 -1.9979  1.2860 -0.7462
18911SOL    HW258175   0.612   6.617  10.091  0.0785  1.6737  1.3732
18912SOL     OW58176   4.578   5.207   2.637  0.4451 -0.0243  0.4569
18912SOL    HW158177   4.668   5.207   2.605  0.6449 -1.3573  0.9514
18912SOL    HW258178   4.529   5.253   2.569  1.1664 -1.1322 -0.8828
18913SOL     OW58179   5.820   1.087   3.564 -0.0146 -0.4025  0.1305
18913SOL    HW158180   5.858   1.047   3.486  2.3811  1.0971  0.4426
18913SOL    HW258181   5.791   1.174   3.535 -1.3015 -0.7182  0.4067
18914SOL     OW58182   6.718   7.763   8.499  0.2458 -0.1685  0.4501
18914SOL    HW158183   6.692   7.768   8.591 -0.3668 -0.5168  0.2960
18914SOL    HW258184   6.784   7.694   8.497  0.2387 -0.1804  0.6197
18915SOL     OW58185   0.565   6.401   5.057  0.1549  0.0508 -0.0197
18915SOL    HW158186   0.484   6.369   5.096 -0.2511  1.2550  0.1563
18915SOL    HW258187   0.634   6.368   5.114 -0.2515 -0.4708  0.1749
18916SOL     OW58188   0.420   2.316   8.887  0.7194  0.3332  0.6277
18916SOL    HW158189   0.331   2.342   8.912  0.5294  0.0598  0.2487
18916SOL    HW258190   0.413   2.294   8.794  1.6313  2.3893  0.0034
18917SOL     OW58191   0.708   5.177   1.082  0.1499 -0.2636 -0.7383
18917SOL    HW158192   0.730   5.133   1.164 -0.7135 -2.2308 -1.4958
18917SOL    HW258193   0.710   5.271   1.104  1.3396 -0.6734  1.1381
18918SOL     OW58194   7.112   0.093   1.441  0.3694  0.0552 -0.1405
18918SOL    HW158195   7.186   0.150   1.462  0.3949 -0.9167  2.7994
18918SOL    HW258196   7.063   0.085   1.523 -0.7686 -2.4751 -0.9552
18919SOL     OW58197   4.520   0.486  10.105 -0.0064  0.0196 -0.0710
18919SOL    HW158198   4.476   0.421  10.159 -1.6841  0.7726 -0.4672
18919SOL    HW258199   4.572   0.435  10.043 -0.0859 -0.8865  0.5912
18920SOL     OW58200   0.163   6.281   3.680 -0.2496  0.3222 -0.2737
18920SOL    HW158201   0.232   6.246   3.624 -0.0691  1.8843 -1.0735
18920SOL    HW258202   0.192   6.369   3.702 -1.5791  0.6974  0.0859
18921SOL     OW58203   2.525   2.926   9.735  0.2718 -0.1788 -1.0725
18921SOL    HW158204   2.527   2.918   9.830  1.8114 -2.6139 -1.2146
18921SOL    HW258205   2.432   2.918   9.712  0.0471 -1.4693  0.1513
18922SOL     OW58206   0.079   0.603   0.585 -0.0382  0.1823 -0.0653
18922SOL    HW158207   0.009   0.590   0.649 -0.5560 -0.9906 -0.8457
18922SOL    HW258208   0.137   0.529   0.597  1.2455  1.2662  0.7344
18923SOL     OW58209   7.467   7.712   6.043 -0.1352  0.8866  0.2244
18923SOL    HW158210   7.507   7.675   5.964 -0.8455 -1.3948  0.8560
18923SOL    HW258211   7.373   7.705   6.027 -0.2942  1.4833  0.8336
18924SOL     OW58212   3.040   5.911   8.209 -0.0664  0.1422 -0.3100
18924SOL    HW158213   3.025   5.982   8.271  0.4514  0.0514 -0.0731
18924SOL    HW258214   2.981   5.841   8.237  1.8048 -0.8020  1.5572
18925SOL     OW58215   6.941   2.554   1.698  0.4655 -0.5312  0.2873
18925SOL    HW158216   6.863   2.499   1.687 -0.3860  0.0998  2.5307
18925SOL    HW258217   6.917   2.637   1.656 -0.3086 -0.1973  1.3169
18926SOL     OW58218   3.591   5.942  11.833 -0.2280  0.5331  0.4547
18926SOL    HW158219   3.578   5.993  11.753 -0.6371 -1.2329 -0.6424
18926SOL    HW258220   3.540   5.862  11.820  0.8456 -0.4407  1.8741
18927SOL     OW58221   2.159   6.040  11.462 -0.3828 -0.0445 -0.1149
18927SOL    HW158222   2.143   5.984  11.538  0.5725 -0.6299 -0.3238
18927SOL    HW258223   2.195   5.981  11.396 -0.2889  0.6366 -0.6879
18928SOL     OW58224   0.002   5.465   6.746  0.2655  0.3343 -0.3622
18928SOL    HW158225   0.073   5.488   6.806 -0.3026  0.6121  0.2223
18928SOL    HW258226  -0.020   5.374   6.768  1.9243 -0.5536 -2.0783
18929SOL     OW58227   7.344   4.341   9.093 -0.0744  0.0527  0.0092
18929SOL    HW158228   7.366   4.410   9.156  0.9395 -0.1349 -0.1225
18929SOL    HW258229   7.251   4.354   9.075  0.0525  1.2677  0.1430
18930SOL     OW58230   1.843   1.521   6.183  0.0883 -0.1602  0.2140
18930SOL    HW158231   1.895   1.568   6.249  0.6017  0.2458 -0.4741
18930SOL    HW258232   1.905   1.502   6.113 -0.5435 -0.2737 -0.3172
18931SOL     OW58233   2.528   2.576   3.109 -0.8271 -0.2061 -0.1964
18931SOL    HW158234   2.508   2.555   3.200 -0.4638  0.9399  0.1649
18931SOL    HW258235   2.521   2.671   3.104  1.7640  0.0297 -0.6819
18932SOL     OW58236   7.191   3.606  11.188  0.4461  0.4743  0.0660
18932SOL    HW158237   7.245   3.537  11.227  0.9632  0.1751 -1.1317
18932SOL    HW258238   7.106   3.597  11.232  0.5370 -0.8703  0.0165
18933SOL     OW58239   3.978   4.999   4.999 -0.1901  0.3152  0.1517
18933SOL    HW158240   4.008   4.910   4.980 -1.4407  0.3621 -2.4248
18933SOL    HW258241   4.058   5.051   5.004  0.6996 -1.0835  3.2318
18934SOL     OW58242   0.221   2.395   0.356  0.3465  0.0465  0.5403
18934SOL    HW158243   0.153   2.459   0.378  2.1900  1.9039  1.1140
18934SOL    HW258244   0.252   2.364   0.441 -0.0463 -1.1222  0.2718
18935SOL     OW58245   3.873   5.343   8.864 -0.1635  0.2159 -0.4389
18935SOL    HW158246   3.939   5.274   8.856  0.7963  0.9888  0.6253
18935SOL    HW258247   3.844   5.358   8.774  1.0009 -0.2382 -0.9105
18936SOL     OW58248   1.309   0.178   3.794  0.0463  0.5720 -0.2683
18936SOL    HW158249   1.233   0.143   3.748 -0.8779  2.5629 -0.3151
18936SOL    HW258250   1.383   0.153   3.740 -0.7191 -0.0009 -1.0699
18937SOL     OW58251   4.790   1.785   2.907 -0.3312  0.3837  0.0244
18937SOL    HW158252   4.769   1.878   2.906  1.3913  0.8129 -1.1201
18937SOL    HW258253   4.755   1.752   2.824  1.1775  0.5532 -0.6942
18938SOL     OW58254   7.498   0.576   3.451 -0.3475  0.2382  0.1242
18938SOL    HW158255   7.552   0.637   3.400  1.9993 -2.8827 -1.4678
18938SOL    HW258256   7.409   0.592   3.419  0.2381  2.3022 -0.6979
18939SOL     OW58257   0.578   0.114   4.265 -0.0362 -0.1518  0.9156
18939SOL    HW158258   0.522   0.109   4.188 -1.5154  1.4194  1.7955
18939SOL    HW258259   0.646   0.050   4.250 -2.0265 -2.1299 -0.2802
18940SOL     OW58260   6.202   3.483   8.493  0.6435 -0.1306  0.1268
18940SOL    HW158261   6.243   3.453   8.574  2.2198 -0.1223 -0.6435
18940SOL    HW258262   6.231   3.573   8.483 -2.5585  1.2280  1.4436
18941SOL     OW58263   5.192   3.859   1.842  0.2207 -0.7805 -0.2261
18941SOL    HW158264   5.250   3.782   1.841  0.5822 -0.5099 -0.5630
18941SOL    HW258265   5.252   3.934   1.840 -0.0145 -0.4190  2.7197
18942SOL     OW58266   4.860   6.959   8.440  0.4242 -0.2159 -0.2356
18942SOL    HW158267   4.807   6.958   8.520  1.5077  0.7837  0.5372
18942SOL    HW258268   4.827   6.885   8.389 -0.9098 -0.3285  0.7231
18943SOL     OW58269   2.331   4.985   0.392 -0.0823  0.3643 -0.0742
18943SOL    HW158270   2.391   4.924   0.349 -0.4786  0.2352 -0.4422
18943SOL    HW258271   2.279   4.931   0.450 -1.3779  0.1230 -1.4093
18944SOL     OW58272   2.041   5.190   7.312  0.2551 -0.3832 -0.4412
18944SOL    HW158273   2.048   5.097   7.336 -1.8770 -0.0038  2.0737
18944SOL    HW258274   2.109   5.233   7.363  1.7508 -0.5514 -2.1752
18945SOL     OW58275   2.023   4.443   8.765  0.7555  0.2783 -0.5358
18945SOL    HW158276   2.034   4.508   8.835  1.8927 -0.6377  0.1726
18945SOL    HW258277   2.044   4.491   8.684 -0.1975  1.2509 -0.2406
18946SOL     OW58278   6.306   5.166   9.605  0.1176  0.1776 -0.1516
18946SOL    HW158279   6.299   5.163   9.700  0.9648 -0.6345 -0.1019
18946SOL    HW258280   6.320   5.258   9.585  0.9717  0.2183  0.5964
18947SOL     OW58281   4.092   7.137   5.957  0.0508  0.8938  0.3356
18947SOL    HW158282   4.096   7.212   5.899 -2.7910  1.5302  0.8150
18947SOL    HW258283   4.071   7.063   5.900 -0.0295  1.0091  0.2152
18948SOL     OW58284   1.629   6.323   2.959 -0.1252  0.6218 -0.0874
18948SOL    HW158285   1.537   6.317   2.985 -0.5770  1.8076 -1.3094
18948SOL    HW258286   1.670   6.246   2.999 -1.7748 -0.2973 -0.0770
18949SOL     OW58287   3.454   0.587   9.134  0.3943  0.6997 -0.2883
18949SOL    HW158288   3.423   0.500   9.162 -1.5497  1.1034 -1.0078
18949SOL    HW258289   3.451   0.640   9.214 -0.1228  0.5389 -0.1968
18950SOL     OW58290   6.684   3.186   1.300 -0.1930 -0.7675 -0.2092
18950SOL    HW158291   6.689   3.281   1.296 -1.4189 -0.4988  2.6170
18950SOL    HW258292   6.594   3.168   1.328  0.5861 -2.6179  1.3249
18951SOL     OW58293   7.265   0.308   8.899 -0.4845  0.3069 -0.5496
18951SOL    HW158294   7.186   0.339   8.943 -0.3188  0.9486 -0.6853
18951SOL    HW258295   7.287   0.379   8.838 -0.7001 -0.5533 -1.6611
18952SOL     OW58296   7.118   4.856   4.588  0.3780  0.2610  0.4070
18952SOL    HW158297   7.111   4.916   4.513  1.1351 -1.6083 -1.2482
18952SOL    HW258298   7.029   4.848   4.621 -0.5921 -1.2516 -2.3060
18953SOL     OW58299   1.582   0.446   4.304 -0.3176  0.3759  0.3316
18953SOL    HW158300   1.521   0.418   4.372 -0.8482 -2.9660 -1.2808
18953SOL    HW258301   1.536   0.428   4.222  2.3812 -1.5274 -0.9514
18954SOL     OW58302   7.263   3.357   5.250 -0.0778  0.3963  0.0084
18954SOL    HW158303   7.218   3.407   5.318  0.6736 -0.9181  1.5171
18954SOL    HW258304   7.253   3.266   5.276  4.3745  0.0096  1.1300
18955SOL     OW58305   2.602   2.543   4.139 -0.3400 -0.1977 -0.0428
18955SOL    HW158306   2.606   2.557   4.233 -1.2820  0.6106 -0.1108
18955SOL    HW258307   2.565   2.624   4.103  3.7566  1.2675 -1.5732
18956SOL     OW58308   5.875   6.650  12.183  0.4989  0.4139 -0.0323
18956SOL    HW158309   5.900   6.727  12.132 -0.4357  1.1732  0.6252
18956SOL    HW258310   5.864   6.683  12.272 -0.9552 -0.2492  0.0615
18957SOL     OW58311   0.674   3.383   2.609  0.3720  0.4781 -0.5757
18957SOL    HW158312   0.623   3.405   2.687  0.0844  1.2063 -0.9553
18957SOL    HW258313   0.760   3.359   2.642 -0.3750 -1.3993  0.1344
18958SOL     OW58314   1.947   1.931  10.365 -0.4471  0.1391 -0.0729
18958SOL    HW158315   2.022   1.904  10.418 -0.5729 -2.2637 -1.0057
18958SOL    HW258316   1.925   2.018  10.398  0.7476 -0.4008  2.3784
18959SOL     OW58317   4.314   1.103   9.862  0.5150 -0.3477  0.8347
18959SOL    HW158318   4.336   1.167   9.794 -0.0169  1.2098  2.0556
18959SOL    HW258319   4.321   1.018   9.819  1.5834  0.5034 -0.7688
18960SOL     OW58320   4.584   0.580   3.222 -0.0323 -0.5037 -0.2748
18960SOL    HW158321   4.639   0.554   3.296 -0.7715  1.1074  0.8875
18960SOL    HW258322   4.541   0.660   3.251 -1.1896 -0.4355 -2.0542
18961SOL     OW58323   6.964   0.641   4.771 -1.0913  0.2666 -0.0704
18961SOL    HW158324   6.875   0.630   4.804 -0.6201 -0.3795  1.0457
18961SOL    HW258325   7.017   0.656   4.850 -0.0590 -0.3928 -0.6130
18962SOL     OW58326   3.149   6.200   7.527 -0.3530  0.5871  0.1161
18962SOL    HW158327   3.082   6.169   7.587 -0.4124  0.8822  0.2019
18962SOL    HW258328   3.141   6.295   7.528  1.0565  0.7445  1.3125
18963SOL     OW58329   4.014   1.796   7.552 -0.4681 -0.1149  0.1704
18963SOL    HW158330   4.022   1.762   7.463  2.8556 -0.7106  0.5720
18963SOL    HW258331   3.939   1.749   7.589 -0.4806 -1.5864 -1.5895
18964SOL     OW58332   2.211   6.737   0.580 -0.7103 -0.1592 -0.6932
18964SOL    HW158333   2.291   6.780   0.550 -2.1205  1.5976 -2.2055
18964SOL    HW258334   2.160   6.722   0.500 -2.4911  0.1307  0.3209
18965SOL     OW58335   2.557   6.863   1.151 -0.0772  0.0456 -0.3651
18965SOL    HW158336   2.525   6.787   1.102 -1.9414  1.2952 -1.2193
18965SOL    HW258337   2.607   6.914   1.087 -1.1779  0.8870 -0.5916
18966SOL     OW58338   0.630   2.052   2.547  0.7424  0.5329  0.0228
18966SOL    HW158339   0.652   2.118   2.612  1.0849  0.5398 -0.1034
18966SOL    HW258340   0.583   1.985   2.597  2.0678 -0.0567  0.5239
18967SOL     OW58341   1.546   1.706   5.760 -0.8857 -0.0100 -0.0435
18967SOL    HW158342   1.487   1.631   5.749 -1.3863  0.5133 -0.9992
18967SOL    HW258343   1.617   1.672   5.816 -1.7145 -0.8484  0.5272
18968SOL     OW58344   3.674   5.887   7.586 -0.2814  0.8051  0.2961
18968SOL    HW158345   3.646   5.962   7.639 -1.9671  0.8278 -0.5585
18968SOL    HW258346   3.765   5.907   7.562  1.4369 -0.2154  4.8765
18969SOL     OW58347   7.348   3.160   6.695  0.5812 -0.4604 -0.2067
18969SOL    HW158348   7.394   3.139   6.614 -0.1306  0.5005 -0.8811
18969SOL    HW258349   7.401   3.120   6.764  0.8776 -1.8017 -1.1826
18970SOL     OW58350   5.634   5.762   8.769  0.2359 -0.1273  0.3015
18970SOL    HW158351   5.717   5.717   8.784 -0.5366 -1.2528  1.3724
18970SOL    HW258352   5.603   5.729   8.684  0.7697  0.1285  0.0061
18971SOL     OW58353   0.314   5.136   9.061  0.1053  0.2263 -0.5117
18971SOL    HW158354   0.395   5.094   9.034  0.0372 -0.1619 -0.1243
18971SOL    HW258355   0.276   5.170   8.980  0.5704  0.2750 -0.7171
18972SOL     OW58356   7.926   5.952   0.743 -0.8942  0.0341 -0.0487
18972SOL    HW158357   7.873   5.996   0.810  0.5370 -1.0614  1.9004
18972SOL    HW258358   7.891   5.863   0.739 -0.3164 -0.2011 -0.0038
18973SOL     OW58359   2.917   2.550   2.332  0.1522  0.4178  0.4711
18973SOL    HW158360   2.911   2.618   2.399 -2.1861  0.4179  0.3506
18973SOL    HW258361   2.828   2.544   2.296  1.3010  0.4329 -2.6640
18974SOL     OW58362   2.582   6.236   7.800  0.2816  0.1780  0.2999
18974SOL    HW158363   2.660   6.281   7.832 -0.0021  0.8682  0.0484
18974SOL    HW258364   2.518   6.306   7.786  0.5797  0.0289 -2.3878
18975SOL     OW58365   3.012   4.476  10.880 -0.7278 -0.1681  0.4225
18975SOL    HW158366   3.078   4.530  10.838 -0.9335 -0.4662 -0.2947
18975SOL    HW258367   3.039   4.386  10.862 -1.7060 -0.2964 -0.5082
18976SOL     OW58368   2.667   1.243   6.640 -0.3935 -0.2342  0.3360
18976SOL    HW158369   2.745   1.190   6.656 -0.8397 -0.9849  0.0281
18976SOL    HW258370   2.695   1.332   6.662  0.9144 -0.2979 -0.9158
18977SOL     OW58371   4.675   5.746   8.614 -0.0156 -0.6454  0.1988
18977SOL    HW158372   4.763   5.715   8.591  1.2231  1.7715  1.2573
18977SOL    HW258373   4.619   5.711   8.545  1.9953 -1.1603 -1.2940
18978SOL     OW58374   2.929   4.660   1.491  0.4716  0.0007 -0.4619
18978SOL    HW158375   2.953   4.631   1.403  2.1519 -0.5533  0.1349
18978SOL    HW258376   2.839   4.629   1.503  0.6768 -1.0560 -1.4975
18979SOL     OW58377   7.327   3.016  11.682 -0.6704  0.3167  0.1219
18979SOL    HW158378   7.373   2.984  11.760  0.8172  1.1083 -0.4087
18979SOL    HW258379   7.351   3.108  11.675  0.5410 -0.0987 -2.1586
18980SOL     OW58380   3.175   0.565   9.837 -0.0839 -0.3389 -0.3302
18980SOL    HW158381   3.236   0.559   9.910 -0.8978  0.4765  0.4610
18980SOL    HW258382   3.230   0.569   9.759  0.8662  0.3509  0.3549
18981SOL     OW58383   7.913   7.589  11.558 -0.4716  0.1552 -0.8306
18981SOL    HW158384   7.910   7.664  11.617  0.1557  0.2932 -0.9589
18981SOL    HW258385   7.900   7.628  11.471  0.5516  0.2184 -0.9664
18982SOL     OW58386   1.326   2.519   9.127 -0.5609 -0.0136 -0.3917
18982SOL    HW158387   1.234   2.544   9.140 -0.6423 -0.3146 -0.3747
18982SOL    HW258388   1.376   2.597   9.151 -0.8377  0.3529 -0.9566
18983SOL     OW58389   6.773   2.675   3.702 -0.0833  0.2715 -0.5616
18983SOL    HW158390   6.684   2.648   3.723  0.1938 -1.0912 -1.0395
18983SOL    HW258391   6.814   2.691   3.787 -1.2253  2.5302 -0.3707
18984SOL     OW58392   6.866   6.662   9.276  0.0959 -0.4590 -0.1916
18984SOL    HW158393   6.845   6.728   9.210 -1.3975 -0.3307  0.3679
18984SOL    HW258394   6.951   6.690   9.311 -0.9166  1.7440  0.6846
18985SOL     OW58395   0.914   6.279   9.098 -0.2953 -0.3122  0.4079
18985SOL    HW158396   0.944   6.352   9.043 -1.1788 -0.2718 -0.0432
18985SOL    HW258397   0.966   6.204   9.068  0.3960  0.0570  0.6593
18986SOL     OW58398   4.965   5.717   5.463 -0.5464  0.1076  0.5685
18986SOL    HW158399   4.934   5.807   5.450  1.3587  0.7765  0.3135
18986SOL    HW258400   4.953   5.675   5.378 -0.3345  0.4957  0.3427
18987SOL     OW58401   7.266   4.906   4.194 -0.1709 -0.3051  0.5868
18987SOL    HW158402   7.186   4.858   4.173 -0.2971  0.6459 -1.3897
18987SOL    HW258403   7.236   4.993   4.219  0.2100 -0.0028  0.0263
18988SOL     OW58404   5.333   5.810   0.686 -0.0173 -0.5997  0.0376
18988SOL    HW158405   5.342   5.905   0.674 -2.7949  0.0808  2.1942
18988SOL    HW258406   5.410   5.785   0.736 -0.1421  0.9112  1.0553
18989SOL     OW58407   2.009   7.643   4.609  0.6372  0.2814  0.0490
18989SOL    HW158408   2.016   7.548   4.599  1.2863  0.2968  0.3125
18989SOL    HW258409   2.090   7.669   4.652  0.1902  0.8834  0.5496
18990SOL     OW58410   4.513   6.645   9.568  0.1459  0.1991 -0.1531
18990SOL    HW158411   4.431   6.679   9.531  0.7453  0.5392 -1.1931
18990SOL    HW258412   4.555   6.721   9.606 -0.5276 -0.1717  1.4006
18991SOL     OW58413   0.928   7.890   5.067  0.0392  0.4447 -0.1130
18991SOL    HW158414   1.020   7.913   5.052  0.3373 -0.7133 -0.1195
18991SOL    HW258415   0.891   7.882   4.979  0.7211 -2.1171 -0.2277
18992SOL     OW58416   3.000   5.370  10.839 -0.2210  0.2496  0.1169
18992SOL    HW158417   2.941   5.296  10.851 -0.1609  0.3419  1.0246
18992SOL    HW258418   2.996   5.418  10.922  0.0489  1.0386 -0.3165
18993SOL     OW58419   5.401   1.145   9.041  0.1206 -0.1764 -0.3459
18993SOL    HW158420   5.494   1.131   9.062  0.1236  0.8452  0.4137
18993SOL    HW258421   5.358   1.155   9.126 -0.7580 -0.9763 -0.6824
18994SOL     OW58422   7.583   7.299   0.479 -0.2227  0.3379  0.2259
18994SOL    HW158423   7.560   7.392   0.484  1.9378  0.9690 -0.4145
18994SOL    HW258424   7.656   7.289   0.541 -0.8472 -1.0976  0.7723
18995SOL     OW58425   4.879   2.087   9.609 -0.3362 -0.4890  0.2028
18995SOL    HW158426   4.824   2.161   9.583  0.1426 -0.3105 -0.3209
18995SOL    HW258427   4.936   2.123   9.678  0.8603  0.0428 -1.0110
18996SOL     OW58428   2.105   5.848   1.387  0.2670  0.3835  0.1752
18996SOL    HW158429   2.021   5.887   1.362 -0.0286 -0.8326 -0.8197
18996SOL    HW258430   2.141   5.814   1.305  1.2861  0.0222  0.7501
18997SOL     OW58431   3.862   1.342   3.502  0.2290  0.4169  0.2020
18997SOL    HW158432   3.816   1.359   3.420  1.0530 -0.8459 -0.5706
18997SOL    HW258433   3.948   1.384   3.491  0.7363 -0.6433 -0.0487
18998SOL     OW58434   3.512   2.910  10.878  0.2792  0.5504  0.3144
18998SOL    HW158435   3.508   2.828  10.830  1.0068  0.6958 -0.0069
18998SOL    HW258436   3.595   2.950  10.851 -0.4932  1.8329 -0.2598
18999SOL     OW58437   5.704   7.061   6.992  0.7331  0.3724  0.1848
18999SOL    HW158438   5.691   7.119   7.067  0.2723  1.3664 -0.6426
18999SOL    HW258439   5.633   6.997   6.998  0.1264  1.0208  0.0827
19000SOL     OW58440   1.605   2.330   4.979 -0.2827 -0.1223 -0.1210
19000SOL    HW158441   1.635   2.269   5.047 -1.8983 -1.3556 -0.4819
19000SOL    HW258442   1.512   2.313   4.970 -0.6415  1.9251 -0.7578
19001SOL     OW58443   5.404   6.872   1.311  0.3987 -0.1393 -0.8421
19001SOL    HW158444   5.457   6.805   1.354 -1.3658  0.7909  3.2845
19001SOL    HW258445   5.455   6.953   1.321  0.4527 -0.0661 -1.6106
19002SOL     OW58446   2.898   1.872   6.008  0.1790 -0.0422 -0.1532
19002SOL    HW158447   2.939   1.953   5.979  0.4247 -0.5832 -1.3339
19002SOL    HW258448   2.869   1.891   6.097  1.9460  0.7195  0.2987
19003SOL     OW58449   4.635   0.278   8.342  0.3203 -0.1212 -0.4553
19003SOL    HW158450   4.713   0.262   8.395  0.1482 -3.2718 -0.9253
19003SOL    HW258451   4.668   0.279   8.252  0.0932  0.8742 -0.5292
19004SOL     OW58452   5.201   1.857   5.508 -0.0737  0.9685 -0.2207
19004SOL    HW158453   5.247   1.774   5.515  1.4453  1.9324  2.6148
19004SOL    HW258454   5.118   1.843   5.554 -0.4798  0.6548 -1.0209
19005SOL     OW58455   7.188   3.053   6.212 -0.1218 -0.3797  0.0812
19005SOL    HW158456   7.193   3.142   6.176 -1.8732  0.1550  1.0479
19005SOL    HW258457   7.259   3.049   6.275  0.4968  0.0375 -0.5740
19006SOL     OW58458   7.180   4.580   4.618  0.1818  0.5830  0.0988
19006SOL    HW158459   7.089   4.560   4.640  0.4555  0.1936  0.9353
19006SOL    HW258460   7.182   4.676   4.610  0.0459  0.7685  1.8539
19007SOL     OW58461   7.591   2.157   5.278 -0.3269  0.2987 -0.1581
19007SOL    HW158462   7.652   2.083   5.275  1.3537  1.6664 -0.8635
19007SOL    HW258463   7.573   2.169   5.372  0.0697 -0.4345  0.0223
19008SOL     OW58464   6.507   4.448   9.497  0.0200  0.1253 -0.7079
19008SOL    HW158465   6.449   4.397   9.553  0.0261 -1.0518 -1.7547
19008SOL    HW258466   6.452   4.519   9.464 -0.7972 -0.8950 -1.5775
19009SOL     OW58467   5.566   0.728  10.247  0.3845 -0.5893  0.0345
19009SOL    HW158468   5.617   0.777  10.311 -1.2860  2.3394 -0.6558
19009SOL    HW258469   5.566   0.784  10.169 -0.9903 -2.1118 -1.1318
19010SOL     OW58470   2.081   4.896   3.897  0.5805 -0.1181 -0.3134
19010SOL    HW158471   2.154   4.957   3.907  0.5798 -0.2159  0.3828
19010SOL    HW258472   2.106   4.840   3.823  2.0222 -1.2361  0.9472
19011SOL     OW58473   7.243   2.928  10.611 -0.0972 -0.0676  0.1305
19011SOL    HW158474   7.296   2.966  10.681 -2.6984 -0.6292  2.6126
19011SOL    HW258475   7.282   2.843  10.593  0.4026 -0.0725  1.2044
19012SOL     OW58476   7.375   5.936   1.038 -0.0896 -0.1368  0.0065
19012SOL    HW158477   7.338   5.862   1.088  1.5768  0.0998  1.7203
19012SOL    HW258478   7.436   5.895   0.977  0.3148 -0.2473  0.4743
19013SOL     OW58479   0.697   0.905   4.520  0.0838  0.3530 -0.3865
19013SOL    HW158480   0.604   0.926   4.511  0.1633  0.3765 -1.2606
19013SOL    HW258481   0.711   0.898   4.614 -0.9548 -0.3151 -0.2664
19014SOL     OW58482   2.478   1.949   9.145  0.8072  0.0195 -0.1301
19014SOL    HW158483   2.429   1.905   9.214  0.1657  1.2535  0.2403
19014SOL    HW258484   2.560   1.975   9.186  0.8606 -0.1460 -0.1317
19015SOL     OW58485   0.875   1.728  11.407  0.6163  0.6247  0.3404
19015SOL    HW158486   0.902   1.813  11.442  1.5651  0.0201  1.1446
19015SOL    HW258487   0.949   1.700  11.353  1.5418 -0.8843  2.2539
19016SOL     OW58488   6.607   3.894   7.504 -0.6925  0.5534 -0.3224
19016SOL    HW158489   6.673   3.847   7.453  0.6076  1.7265  0.1987
19016SOL    HW258490   6.542   3.828   7.526  0.1543 -0.5883 -1.1117
19017SOL     OW58491   7.278   6.519   1.526 -0.1005  0.0263 -0.1958
19017SOL    HW158492   7.255   6.591   1.584 -1.9291  0.4679 -1.3812
19017SOL    HW258493   7.348   6.554   1.470 -0.2851  0.5513 -0.1024
19018SOL     OW58494   1.668   5.110   7.486  0.2955  0.1799 -0.1519
19018SOL    HW158495   1.711   5.172   7.545 -1.2496 -1.0816  2.4888
19018SOL    HW258496   1.579   5.144   7.475  0.0931 -0.4244 -0.4628
19019SOL     OW58497   3.785   0.494   2.676  0.7357 -0.5419  0.5991
19019SOL    HW158498   3.819   0.577   2.641 -0.2804  0.5177  2.0028
19019SOL    HW258499   3.697   0.516   2.708  0.7601 -1.9706  1.7512
19020SOL     OW58500   7.349   1.687  11.788  0.1842 -0.0867 -0.2441
19020SOL    HW158501   7.409   1.651  11.854  0.9379  3.5476  1.3319
19020SOL    HW258502   7.406   1.736  11.729 -0.8948  0.1850 -1.0837
19021SOL     OW58503   3.617   5.677   9.993 -0.7044 -0.1162 -0.0739
19021SOL    HW158504   3.646   5.647   9.907 -1.3972 -0.4947 -0.1823
19021SOL    HW258505   3.668   5.756  10.010  0.0326 -0.4999 -0.4690
19022SOL     OW58506   5.538   6.733   9.608  0.4002 -0.9978  0.1536
19022SOL    HW158507   5.558   6.643   9.580  1.2125 -0.3431 -1.5162
19022SOL    HW258508   5.597   6.748   9.682  0.6024 -1.6692  0.1427
19023SOL     OW58509   7.835   1.245   8.549  0.1566 -0.6489 -0.7639
19023SOL    HW158510   7.923   1.267   8.519 -0.1313  1.5202 -0.1934
19023SOL    HW258511   7.803   1.181   8.486  1.8275 -0.8523 -1.4515
19024SOL     OW58512   5.929   4.782   5.839  0.0047  0.2526  0.0049
19024SOL    HW158513   5.864   4.790   5.769  0.2461 -1.7846 -0.5015
19024SOL    HW258514   5.880   4.802   5.919 -0.8503  0.2890 -0.5115
19025SOL     OW58515   4.639   7.848   0.937 -0.2213  0.0272 -0.3673
19025SOL    HW158516   4.735   7.843   0.938 -0.2558 -0.9904  1.2378
19025SOL    HW258517   4.620   7.927   0.886  1.5550  1.9331  1.7001
19026SOL     OW58518   0.974   1.668   4.686  0.3364 -0.7818 -0.6408
19026SOL    HW158519   1.054   1.641   4.730 -0.1813 -1.3978 -0.0575
19026SOL    HW258520   0.916   1.695   4.757  0.4857  0.9507 -1.1306
19027SOL     OW58521   5.716   5.928  10.750 -0.6473 -0.5269  0.1394
19027SOL    HW158522   5.718   5.836  10.723 -0.3112 -0.2652 -0.7527
19027SOL    HW258523   5.752   5.927  10.839  0.2051 -1.1489 -0.1956
19028SOL     OW58524   4.487   2.727   3.614 -0.2787 -0.2797 -0.0390
19028SOL    HW158525   4.582   2.715   3.619 -0.3966 -0.9321  0.9453
19028SOL    HW258526   4.455   2.702   3.701 -1.4650 -1.1532 -0.6922
19029SOL     OW58527   4.417   1.432   3.397 -0.5556  0.2166  0.7027
19029SOL    HW158528   4.323   1.420   3.391 -0.6117  0.4861  0.9803
19029SOL    HW258529   4.429   1.488   3.474 -0.2760  1.3515 -0.1408
19030SOL     OW58530   2.140   1.435   0.918  0.0102 -0.0365 -0.2610
19030SOL    HW158531   2.130   1.530   0.908 -2.3621 -0.1022  0.7965
19030SOL    HW258532   2.131   1.420   1.012 -0.3408 -1.3945 -0.4918
19031SOL     OW58533   0.624   1.598   4.244  0.2086 -0.2433 -0.3464
19031SOL    HW158534   0.648   1.575   4.334  1.2393  0.2438 -0.4859
19031SOL    HW258535   0.668   1.681   4.228 -1.3247  0.5372 -0.7448
19032SOL     OW58536   3.594   0.642  11.565 -0.1596 -0.0718 -0.3609
19032SOL    HW158537   3.684   0.611  11.568  0.0347  0.5700  0.9150
19032SOL    HW258538   3.601   0.734  11.537 -0.4234 -0.0553 -0.3788
19033SOL     OW58539   2.417   1.630   3.338  0.4195  0.4026 -0.5031
19033SOL    HW158540   2.341   1.615   3.394  0.0346  0.8728 -0.8927
19033SOL    HW258541   2.492   1.631   3.398  0.0039  0.9746  0.0113
19034SOL     OW58542   7.032   4.401  12.070  0.2180  0.1171 -0.2217
19034SOL    HW158543   6.968   4.354  12.017  0.1319 -0.7991  0.6599
19034SOL    HW258544   7.112   4.349  12.063  0.4876  0.5329 -0.2559
19035SOL     OW58545   6.511   7.125   4.031 -0.1378 -0.2382  0.4700
19035SOL    HW158546   6.425   7.126   3.988 -0.0944 -0.0247  0.3911
19035SOL    HW258547   6.557   7.051   3.992 -0.7559 -1.1542  1.4134
19036SOL     OW58548   0.504   0.316   2.360 -0.0713 -0.0269 -0.4720
19036SOL    HW158549   0.434   0.364   2.404 -0.7667  0.3707 -1.9416
19036SOL    HW258550   0.575   0.380   2.350 -0.0110 -0.0461 -0.1920
19037SOL     OW58551   3.161   1.864   9.243  0.2371  0.3081 -0.2821
19037SOL    HW158552   3.216   1.796   9.283 -0.6726 -0.6960 -0.6844
19037SOL    HW258553   3.119   1.820   9.169 -2.4313  0.4945  0.9937
19038SOL     OW58554   1.815   6.421   7.638 -0.3250  0.2453 -0.0321
19038SOL    HW158555   1.764   6.366   7.697 -0.1988 -1.6842 -1.6513
19038SOL    HW258556   1.896   6.439   7.687  0.6838 -3.0218 -0.2479
19039SOL     OW58557   1.145   0.455   0.775 -0.2023 -0.2048 -0.1453
19039SOL    HW158558   1.167   0.548   0.775  0.3938 -0.3298 -0.8863
19039SOL    HW258559   1.069   0.448   0.832 -0.0454  0.6834  0.1927
19040SOL     OW58560   4.574   2.060  10.659 -0.0813  0.1172  0.8399
19040SOL    HW158561   4.562   1.988  10.722 -0.2995 -0.2643  0.3642
19040SOL    HW258562   4.619   2.128  10.710 -0.2028 -0.2071  1.3955
19041SOL     OW58563   6.565   5.863   1.056 -0.1625  0.4536 -0.0548
19041SOL    HW158564   6.578   5.809   1.134 -1.4980 -0.5838 -0.5097
19041SOL    HW258565   6.616   5.942   1.073  0.3021 -0.1333  1.4687
19042SOL     OW58566   0.138   2.582   2.343 -0.1472  0.0809 -0.0813
19042SOL    HW158567   0.052   2.601   2.380 -0.0162  2.2149 -0.7377
19042SOL    HW258568   0.178   2.667   2.331  1.4615 -0.7895 -1.2267
19043SOL     OW58569   5.947   7.590   8.503 -0.3835 -0.1460  0.1731
19043SOL    HW158570   5.894   7.512   8.487 -0.7279  0.1142  0.0424
19043SOL    HW258571   5.884   7.660   8.517 -0.0798  0.0480  0.6148
19044SOL     OW58572   7.946   4.578   9.898  0.3408  0.0002  0.1993
19044SOL    HW158573   8.036   4.568   9.929  0.7087 -1.4792 -1.2328
19044SOL    HW258574   7.896   4.517   9.953  0.8846 -2.1030 -1.5072
19045SOL     OW58575   1.883   4.829  10.244 -0.2900 -0.4227 -0.3689
19045SOL    HW158576   1.910   4.748  10.200 -2.4662 -2.4915  1.7766
19045SOL    HW258577   1.883   4.807  10.337 -1.3556  1.9227  0.2640
19046SOL     OW58578   6.267   1.472   1.999  0.3117 -0.2883 -0.0020
19046SOL    HW158579   6.192   1.440   1.949  0.2770 -0.4262  0.1376
19046SOL    HW258580   6.331   1.401   1.996 -0.8398 -1.5679  2.6482
19047SOL     OW58581   4.779   6.173   5.014  0.2088  0.0567  0.3450
19047SOL    HW158582   4.754   6.137   4.928 -0.3845 -0.5553  0.7676
19047SOL    HW258583   4.790   6.096   5.069  2.0919  0.3490  0.4438
19048SOL     OW58584   6.173   7.923   9.429  0.1057  0.2728 -0.3182
19048SOL    HW158585   6.132   7.918   9.343  0.4096 -0.5711 -0.4267
19048SOL    HW258586   6.151   8.010   9.461 -0.1379  0.5405 -1.1841
19049SOL     OW58587   0.783   7.718  10.889 -0.1987  0.3724  0.0917
19049SOL    HW158588   0.748   7.657  10.825  0.0729 -0.7976  1.0261
19049SOL    HW258589   0.848   7.667  10.938  0.7373  1.6814  0.2718
19050SOL     OW58590   0.122   2.654   3.621  0.3186  0.5424 -0.5802
19050SOL    HW158591   0.164   2.660   3.536  1.0907  0.7650 -0.1916
19050SOL    HW258592   0.171   2.715   3.677 -0.3977  0.6705 -0.0644
19051SOL     OW58593   0.435   3.684  11.688 -0.2446  0.0379 -0.1223
19051SOL    HW158594   0.375   3.613  11.709 -0.8740  0.5798 -0.0928
19051SOL    HW258595   0.414   3.753  11.750  0.8149  0.0142  0.2819
19052SOL     OW58596   0.314   4.773  10.301  0.5339  0.0799  0.3057
19052SOL    HW158597   0.342   4.859  10.269  1.2177  0.3357  1.5070
19052SOL    HW258598   0.364   4.761  10.382  0.0861 -1.2433  0.4006
19053SOL     OW58599   0.787   0.570   7.848 -0.2081  0.2286 -0.5184
19053SOL    HW158600   0.845   0.509   7.802 -1.2925 -0.4681 -1.0030
19053SOL    HW258601   0.733   0.515   7.905 -0.0459  0.9175  0.3270
19054SOL     OW58602   1.464   7.685   6.888  0.2792  0.4009 -0.1784
19054SOL    HW158603   1.551   7.649   6.870  1.1211  2.0798  0.3059
19054SOL    HW258604   1.442   7.733   6.807  0.4449  1.1290  0.1959
19055SOL     OW58605   3.361   5.202   3.469 -0.3108  0.0134  0.3232
19055SOL    HW158606   3.363   5.156   3.385 -0.3048  1.1375 -0.3177
19055SOL    HW258607   3.386   5.136   3.533  1.0075 -0.5495 -0.7065
19056SOL     OW58608   5.431   5.984   0.305  0.0781 -0.0756 -0.7186
19056SOL    HW158609   5.407   6.036   0.228 -0.4057  0.8425  0.0390
19056SOL    HW258610   5.387   5.900   0.291  1.4189 -0.5894 -2.2846
19057SOL     OW58611   7.619   0.443   4.651  0.3857  0.0308  0.3917
19057SOL    HW158612   7.674   0.368   4.628 -1.1727 -0.7357 -1.1001
19057SOL    HW258613   7.633   0.505   4.579 -1.2020 -0.4924 -0.4078
19058SOL     OW58614   5.869   6.104   1.884  1.0386 -0.1676  0.6428
19058SOL    HW158615   5.793   6.160   1.896  1.8246  1.6945 -2.1536
19058SOL    HW258616   5.917   6.111   1.967 -0.4730  0.7696  1.4735
19059SOL     OW58617   2.726   4.285  12.270  0.2942  0.9853 -0.3062
19059SOL    HW158618   2.812   4.326  12.264  0.0192  1.4354 -1.6195
19059SOL    HW258619   2.738   4.197  12.234  0.4124  0.6888  0.4462
19060SOL     OW58620   6.036   0.682   0.946  0.1098  0.0894  0.3025
19060SOL    HW158621   6.066   0.692   0.856 -0.1930  0.6137  0.2527
19060SOL    HW258622   6.104   0.631   0.989 -0.1613 -0.9111 -0.4345
19061SOL     OW58623   3.997   5.248   1.718 -0.2097  0.3174 -0.0988
19061SOL    HW158624   3.928   5.314   1.710  0.4320  0.8400 -1.7487
19061SOL    HW258625   4.056   5.266   1.644  0.4516 -1.5514 -0.0788
19062SOL     OW58626   5.614   1.237   1.654  0.2168  0.0182  0.2900
19062SOL    HW158627   5.521   1.260   1.658  0.4273  1.1767 -0.9692
19062SOL    HW258628   5.623   1.187   1.573  0.1815 -2.8240  1.8908
19063SOL     OW58629   2.468   7.173   3.298 -0.1997  0.0285  0.2373
19063SOL    HW158630   2.386   7.198   3.341 -1.3836 -2.8548 -0.1178
19063SOL    HW258631   2.440   7.130   3.217  1.7413  0.1337 -0.5418
19064SOL     OW58632   5.182   5.265  11.284  0.1331 -0.0664 -0.0521
19064SOL    HW158633   5.229   5.333  11.235  1.5841 -0.8524  0.2037
19064SOL    HW258634   5.108   5.311  11.324  1.0290  1.3510  0.0376
19065SOL     OW58635   6.224   5.394   6.166  0.4072  0.2557 -0.4980
19065SOL    HW158636   6.246   5.390   6.073 -2.3626  0.5946 -1.2789
19065SOL    HW258637   6.199   5.305   6.189  0.9032  0.2115 -0.1311
19066SOL     OW58638   5.300   5.494   3.042  0.5911  0.2492  0.6942
19066SOL    HW158639   5.299   5.541   3.125 -1.2926  0.1510  0.7684
19066SOL    HW258640   5.251   5.413   3.059  0.0832  0.2722 -0.5106
19067SOL     OW58641   7.483   3.792  11.350  0.1800 -0.1117 -0.0706
19067SOL    HW158642   7.430   3.802  11.271  1.1476 -1.9937 -1.0219
19067SOL    HW258643   7.552   3.730  11.326  0.8393 -0.3328  2.1057
19068SOL     OW58644   4.298   1.158   4.403 -0.1496 -0.1082  0.3128
19068SOL    HW158645   4.289   1.144   4.497  0.5102  1.8178  0.6920
19068SOL    HW258646   4.393   1.153   4.387 -0.0919  1.3783  0.0879
19069SOL     OW58647   0.546   1.760   0.750 -0.2564  0.2466  0.4177
19069SOL    HW158648   0.480   1.718   0.696  0.3231 -0.7871  0.4726
19069SOL    HW258649   0.618   1.780   0.690  0.0909 -0.2445  0.6573
19070SOL     OW58650   0.750   5.115   3.495  0.5033 -0.5405  0.1807
19070SOL    HW158651   0.832   5.151   3.463 -0.5244 -0.1838 -2.3311
19070SOL    HW258652   0.696   5.191   3.516  0.1652 -0.7126 -0.0436
19071SOL     OW58653   0.131   0.257   0.943  0.1618 -0.2512  0.1525
19071SOL    HW158654   0.182   0.255   0.862  1.8271 -0.8221  1.1747
19071SOL    HW258655   0.067   0.186   0.933  1.6685 -1.6569  0.1370
19072SOL     OW58656   2.516   4.637   4.202  0.0940  0.6606  0.0647
19072SOL    HW158657   2.504   4.557   4.255  2.6994 -0.6282 -1.1097
19072SOL    HW258658   2.452   4.628   4.131  0.7772 -0.7722 -0.4190
19073SOL     OW58659   0.928   6.997   8.180 -0.5581  0.2832  0.0917
19073SOL    HW158660   0.989   7.070   8.192 -0.8377  0.4141  0.7669
19073SOL    HW258661   0.885   7.015   8.097 -1.9295  1.8633  1.0801
19074SOL     OW58662   6.286   0.034   2.233  0.4870  0.1268  0.0803
19074SOL    HW158663   6.363   0.033   2.176  1.0740 -0.0352  0.8591
19074SOL    HW258664   6.261  -0.058   2.242  0.6257  0.1128  0.3688
19075SOL     OW58665   5.549   2.520  10.149 -0.3671  0.3927  0.2838
19075SOL    HW158666   5.615   2.577  10.189 -2.0298  0.9157  2.4883
19075SOL    HW258667   5.468   2.542  10.195 -2.1740 -0.0692 -2.4619
19076SOL     OW58668   5.315   2.161   4.885 -0.7363 -0.1566  0.1194
19076SOL    HW158669   5.383   2.209   4.838 -0.6849 -0.9972 -0.7046
19076SOL    HW258670   5.232   2.198   4.853 -0.7242 -1.1536 -1.1842
19077SOL     OW58671   1.480   1.440   1.152  0.0386  0.3874 -0.3543
19077SOL    HW158672   1.471   1.517   1.209  0.7928  0.6013 -0.5069
19077SOL    HW258673   1.574   1.419   1.157 -0.1023 -0.2996 -0.6031
19078SOL     OW58674   4.861   7.811   6.486  0.3450 -0.5011 -0.1064
19078SOL    HW158675   4.881   7.903   6.467  0.6645 -0.1613  1.6292
19078SOL    HW258676   4.911   7.761   6.422  0.4048  0.5226 -0.8927
19079SOL     OW58677   7.446   4.188   1.567  0.3777 -0.3273 -0.2079
19079SOL    HW158678   7.464   4.099   1.597  0.0885  0.1886  1.6530
19079SOL    HW258679   7.358   4.206   1.599  1.4554  1.5670  1.9978
19080SOL     OW58680   6.043   5.775   9.060  0.1119 -0.9724 -0.5339
19080SOL    HW158681   6.031   5.852   9.116  0.7113 -1.7356  0.6692
19080SOL    HW258682   5.967   5.777   9.001 -0.5343 -0.1459  0.2925
19081SOL     OW58683   0.901   3.430  10.718  0.5784  0.2741 -0.3022
19081SOL    HW158684   0.938   3.393  10.798  0.9824  0.7672 -0.2556
19081SOL    HW258685   0.937   3.519  10.714 -0.5276  0.7283 -0.3095
19082SOL     OW58686   0.586   4.433   1.725  0.2422  0.1492 -0.2370
19082SOL    HW158687   0.605   4.489   1.649 -2.1651 -0.3580 -1.3269
19082SOL    HW258688   0.491   4.424   1.724  0.3150 -1.4719  1.7367
19083SOL     OW58689   3.138   0.869   8.498  0.2638  0.2343 -0.1712
19083SOL    HW158690   3.131   0.963   8.480  1.4425  0.2516 -0.5804
19083SOL    HW258691   3.049   0.844   8.523 -0.2419  1.3018 -0.8040
19084SOL     OW58692   0.494   5.518  10.179  0.2809  0.4970 -0.1931
19084SOL    HW158693   0.496   5.550  10.269  0.2241  1.2951 -0.4623
19084SOL    HW258694   0.585   5.497  10.158  0.3568  0.7193 -0.0883
19085SOL     OW58695   6.157   3.452   5.878  0.0575 -0.0158  0.1530
19085SOL    HW158696   6.178   3.514   5.808 -0.8575 -0.0789 -0.1864
19085SOL    HW258697   6.223   3.384   5.869  1.6920  1.3636  1.1444
19086SOL     OW58698   2.730   6.325  11.611  0.6826 -0.1594  0.1309
19086SOL    HW158699   2.718   6.298  11.702  1.7467  0.6489  0.5365
19086SOL    HW258700   2.753   6.418  11.617  1.3556 -0.2453 -0.9194
19087SOL     OW58701   5.611   2.657  10.819 -0.0737  0.0005 -0.0116
19087SOL    HW158702   5.565   2.575  10.834 -1.5168  0.8744  0.6160
19087SOL    HW258703   5.658   2.673  10.901 -1.2609  0.6606  0.5761
19088SOL     OW58704   5.193   5.815   3.289  0.3383 -0.4158  0.1033
19088SOL    HW158705   5.171   5.804   3.197 -0.2056  2.7677 -0.2732
19088SOL    HW258706   5.256   5.746   3.308  0.7013 -0.9628 -2.7342
19089SOL     OW58707   3.678   6.741   6.941  0.0696 -0.5376 -0.3226
19089SOL    HW158708   3.652   6.661   6.987  0.1248 -0.6602 -0.5045
19089SOL    HW258709   3.755   6.716   6.890  0.5899 -0.1637  0.2575
19090SOL     OW58710   2.057   0.956   8.399  0.5837 -0.6909 -0.1333
19090SOL    HW158711   1.984   0.899   8.378  1.3065 -1.3320 -0.9986
19090SOL    HW258712   2.135   0.901   8.389  1.1720 -0.1853  1.3082
19091SOL     OW58713   7.704   7.801   3.672  0.3290  0.1555 -0.5822
19091SOL    HW158714   7.651   7.879   3.688 -1.0241 -0.8611  0.0339
19091SOL    HW258715   7.697   7.750   3.752  0.1041 -1.2226 -1.4499
19092SOL     OW58716   4.655   0.233   4.518 -0.6660 -0.1060 -0.3905
19092SOL    HW158717   4.702   0.176   4.457  1.5791 -0.2988  1.3616
19092SOL    HW258718   4.592   0.175   4.562 -1.5324 -0.1991 -1.7187
19093SOL     OW58719   3.312   1.552  10.667 -0.5792 -0.4779 -0.2893
19093SOL    HW158720   3.358   1.634  10.685  0.4260 -0.8162 -1.2163
19093SOL    HW258721   3.313   1.505  10.750  0.3337 -0.2714 -0.1735
19094SOL     OW58722   7.838   0.626   2.859  0.3141 -0.2929 -0.3762
19094SOL    HW158723   7.883   0.709   2.843 -1.5948  1.1284  1.1493
19094SOL    HW258724   7.806   0.599   2.772  2.4248 -0.4084 -1.1780
19095SOL     OW58725   7.959   1.123   7.126  0.3670 -0.5120 -0.0148
19095SOL    HW158726   7.909   1.163   7.198  2.7587  3.2643 -0.1529
19095SOL    HW258727   7.899   1.122   7.052 -1.1828 -1.5308  1.1952
19096SOL     OW58728   6.913   2.706   8.971  0.2547  0.1988  0.0379
19096SOL    HW158729   6.835   2.652   8.959  0.4060 -0.1204  0.4499
19096SOL    HW258730   6.943   2.686   9.060  1.9028 -1.1297 -0.7490
19097SOL     OW58731   7.567   6.285   7.595  0.5890  0.0760 -0.0682
19097SOL    HW158732   7.606   6.220   7.653  1.6403  1.4567  0.8127
19097SOL    HW258733   7.482   6.305   7.636  1.1239  0.7024  0.7670
19098SOL     OW58734   3.843   6.207   0.867 -0.6049 -0.3337  0.6476
19098SOL    HW158735   3.861   6.118   0.837 -2.7504 -0.6715  0.1777
19098SOL    HW258736   3.794   6.247   0.794 -4.8877 -0.7675  2.9657
19099SOL     OW58737   4.253   3.938   7.764  0.4418  0.3814  0.4032
19099SOL    HW158738   4.219   3.969   7.848  1.3847 -1.4823  1.5653
19099SOL    HW258739   4.338   3.898   7.786  0.7265 -0.1462 -1.4425
19100SOL     OW58740   1.159   3.631   1.814 -0.1169  0.6130 -0.3429
19100SOL    HW158741   1.240   3.615   1.766 -0.6924  0.9362 -1.4791
19100SOL    HW258742   1.146   3.552   1.867  0.3654  0.0784 -0.9976
19101SOL     OW58743   1.441   6.979   2.194 -0.2189  0.4802  0.2004
19101SOL    HW158744   1.510   6.928   2.152  0.1686  1.3334 -0.2066
19101SOL    HW258745   1.390   6.914   2.242 -0.3017 -0.4255 -1.0733
19102SOL     OW58746   3.646   3.050  10.120 -0.1105 -0.0501 -0.4754
19102SOL    HW158747   3.693   3.005  10.050  0.6652  0.9299 -0.6065
19102SOL    HW258748   3.706   3.118  10.150 -1.0081  0.5022  0.1382
19103SOL     OW58749   6.929   4.983  11.014 -0.1037  0.1158  0.4688
19103SOL    HW158750   6.959   4.952  11.099  0.6047  1.6295  0.8003
19103SOL    HW258751   6.834   4.966  11.015  0.0165 -0.5699  1.2418
19104SOL     OW58752   0.709   3.556   9.862 -0.2657  0.5808  0.1330
19104SOL    HW158753   0.769   3.579   9.791  1.7836 -0.7917  1.3209
19104SOL    HW258754   0.714   3.461   9.870 -1.5261  0.5619  1.2137
19105SOL     OW58755   6.810   4.751   0.873  0.9831 -0.5213  0.7536
19105SOL    HW158756   6.839   4.668   0.910  1.0533 -0.0397  1.7872
19105SOL    HW258757   6.802   4.810   0.947  2.5963  0.9076 -0.1568
19106SOL     OW58758   3.303   2.606   3.123  0.2751 -0.0053  0.7854
19106SOL    HW158759   3.324   2.699   3.123 -0.1964  0.1146 -0.4305
19106SOL    HW258760   3.289   2.585   3.215 -0.9327  1.4295  0.9669
19107SOL     OW58761   1.013   2.999   5.595 -0.3998 -0.5124  0.0777
19107SOL    HW158762   1.108   3.013   5.586 -0.2401 -0.4896  1.5292
19107SOL    HW258763   1.005   2.914   5.637 -0.9940 -0.2400  0.5344
19108SOL     OW58764   7.372   2.220   2.092  0.0934 -0.0955  0.0311
19108SOL    HW158765   7.459   2.210   2.053  0.2760  1.6436 -0.0884
19108SOL    HW258766   7.312   2.220   2.017  0.1457  0.2015 -0.0121
19109SOL     OW58767   4.623   4.503   5.322  0.4457 -0.6285  0.0685
19109SOL    HW158768   4.696   4.458   5.279 -0.3627 -0.0046 -2.0561
19109SOL    HW258769   4.633   4.595   5.298 -1.0448 -0.5339 -0.2879
19110SOL     OW58770   0.594   1.961   7.019  0.3865 -0.2508  0.7526
19110SOL    HW158771   0.560   1.943   6.931  0.4485  0.4429  0.5858
19110SOL    HW258772   0.575   1.881   7.068  0.6617 -0.7827  0.0189
19111SOL     OW58773   2.966   2.110  12.416  0.2140 -0.0469  0.4020
19111SOL    HW158774   2.894   2.147  12.365  0.6863 -0.3111 -0.4843
19111SOL    HW258775   2.924   2.053  12.480 -0.3563 -0.3106 -0.1990
19112SOL     OW58776   0.340   6.596   7.954 -0.2110 -0.0174  0.0604
19112SOL    HW158777   0.372   6.685   7.940  0.2301 -0.1550  0.1771
19112SOL    HW258778   0.416   6.540   7.939 -0.6107 -0.4146 -0.5204
19113SOL     OW58779   3.184   4.956   7.557 -0.0966 -0.5308  0.1054
19113SOL    HW158780   3.221   4.869   7.541 -1.5674 -1.0534 -0.6258
19113SOL    HW258781   3.181   4.997   7.471 -0.9217 -0.3798  0.2038
19114SOL     OW58782   2.801   1.205  10.018  0.1123  0.1667 -0.5516
19114SOL    HW158783   2.734   1.138  10.006  1.2475 -0.8416 -1.4434
19114SOL    HW258784   2.852   1.203   9.937  1.9890  0.0130  0.5857
19115SOL     OW58785   2.614   3.895   2.134  0.2457 -0.0508 -0.1267
19115SOL    HW158786   2.605   3.924   2.043 -3.3403 -0.3228  0.0053
19115SOL    HW258787   2.540   3.935   2.179  0.1733 -2.3835  2.0164
19116SOL     OW58788   1.471   2.237   6.587 -0.0138 -0.1629 -0.0650
19116SOL    HW158789   1.488   2.300   6.517  0.9611 -0.6831 -0.3238
19116SOL    HW258790   1.436   2.290   6.658 -1.4951  0.3011 -1.1010
19117SOL     OW58791   3.612   3.438  11.796 -0.2527 -0.3644 -1.0782
19117SOL    HW158792   3.670   3.363  11.784 -1.4824 -1.5594 -0.0058
19117SOL    HW258793   3.533   3.401  11.836  0.5379  1.9150  3.3256
19118SOL     OW58794   0.140   0.304  10.621 -0.0917 -0.8926  0.3114
19118SOL    HW158795   0.148   0.276  10.713  0.5473 -0.4329  0.3991
19118SOL    HW258796   0.225   0.342  10.600 -0.9002  0.9250  0.1584
19119SOL     OW58797   7.081   6.763   9.419 -0.0643 -0.1804 -0.5531
19119SOL    HW158798   7.111   6.766   9.510  0.5929  0.0943 -0.7739
19119SOL    HW258799   7.101   6.850   9.385 -1.0671 -0.0036 -0.7320
19120SOL     OW58800   3.913   4.069   5.020 -0.6710  0.2201  0.0438
19120SOL    HW158801   3.856   4.145   5.030 -2.2238 -0.9284  0.3269
19120SOL    HW258802   3.871   4.000   5.072 -0.7691 -1.5738 -2.2457
19121SOL     OW58803   3.759   0.236   9.569 -0.5107 -0.1492 -0.0696
19121SOL    HW158804   3.822   0.307   9.584 -1.1019  0.7240 -1.5280
19121SOL    HW258805   3.814   0.159   9.553  0.2222  0.6171 -1.3955
19122SOL     OW58806   3.946   2.639   4.398 -0.0991 -0.3868 -0.1265
19122SOL    HW158807   3.979   2.688   4.473  1.0953 -1.5146  0.1172
19122SOL    HW258808   3.904   2.562   4.436  0.4879 -0.9519 -0.6064
19123SOL     OW58809   0.764   0.571   5.201 -0.2109  0.7366 -0.0061
19123SOL    HW158810   0.811   0.600   5.123  1.0395  1.9218  1.1270
19123SOL    HW258811   0.820   0.503   5.238 -1.2559 -0.4917 -0.5981
19124SOL     OW58812   7.650   1.977   0.620 -0.5354 -0.3937 -0.0729
19124SOL    HW158813   7.676   2.067   0.642  0.0917 -0.6265  0.1448
19124SOL    HW258814   7.564   1.966   0.661 -0.3878 -0.0641  0.3293
19125SOL     OW58815   7.039   7.620   2.433 -0.3179 -0.4334 -0.3249
19125SOL    HW158816   6.981   7.697   2.438  0.6612  0.3352 -0.4280
19125SOL    HW258817   7.101   7.642   2.363  0.9187 -0.6504  0.6740
19126SOL     OW58818   0.170   6.443   7.555  0.1830 -0.4000  0.1377
19126SOL    HW158819   0.222   6.520   7.577  0.4999 -0.9329  1.3002
19126SOL    HW258820   0.082   6.465   7.583 -0.1645  0.3232 -1.4146
19127SOL     OW58821   7.799   2.423  12.213  0.3501 -0.4157  0.1412
19127SOL    HW158822   7.706   2.414  12.193  0.2831 -0.9130  0.6611
19127SOL    HW258823   7.803   2.429  12.308  0.9319 -1.4705  0.1996
19128SOL     OW58824   1.474   7.108   4.190 -0.2452  0.3085 -0.2170
19128SOL    HW158825   1.381   7.095   4.171 -0.2355  0.4394 -0.3615
19128SOL    HW258826   1.497   7.036   4.248 -0.9171  1.4062  1.4808
19129SOL     OW58827   6.206   3.545   1.816 -0.1286 -0.2483  0.1114
19129SOL    HW158828   6.126   3.509   1.855 -0.1599 -0.9848 -0.6124
19129SOL    HW258829   6.175   3.603   1.747 -0.0415 -0.4154 -0.0679
19130SOL     OW58830   5.344   1.889  12.076 -0.5560 -0.1175 -0.4497
19130SOL    HW158831   5.398   1.810  12.085 -0.4508  0.0390  0.4436
19130SOL    HW258832   5.350   1.911  11.984  0.8887 -0.1388 -0.3911
19131SOL     OW58833   2.667   5.861   0.546 -0.7181 -0.2037 -0.3416
19131SOL    HW158834   2.762   5.869   0.542 -0.3831 -2.8000  0.5722
19131SOL    HW258835   2.643   5.896   0.632 -0.4612 -0.4629 -0.1647
19132SOL     OW58836   4.974   6.669   9.653  0.3711 -0.9666 -0.5336
19132SOL    HW158837   4.973   6.732   9.725 -1.5468  2.1031 -2.9827
19132SOL    HW258838   4.941   6.587   9.692 -0.5647  0.5251  2.0669
19133SOL     OW58839   5.079   5.383   9.269  0.0620 -0.0674 -0.3845
19133SOL    HW158840   5.038   5.331   9.199  0.7171  0.7408 -1.3978
19133SOL    HW258841   5.145   5.325   9.306  0.9596  0.0970 -1.6778
19134SOL     OW58842   3.929   3.996   4.744 -0.0329  0.0222 -0.1176
19134SOL    HW158843   4.015   4.025   4.713 -0.1006 -0.7741 -1.0969
19134SOL    HW258844   3.931   4.011   4.838  0.1480  2.6386 -0.4613
19135SOL     OW58845   5.755   5.941   5.396  0.3646 -0.0855 -0.1768
19135SOL    HW158846   5.676   5.995   5.402  0.5682  0.0931  1.2291
19135SOL    HW258847   5.749   5.881   5.471  1.8734  0.3768  0.3535
19136SOL     OW58848   3.613   3.797   4.550 -0.2778  0.1367  0.0416
19136SOL    HW158849   3.680   3.865   4.548  1.8722 -1.8875 -1.4091
19136SOL    HW258850   3.591   3.782   4.458 -1.0587 -0.8361  0.3646
19137SOL     OW58851   3.828   4.734  11.306  0.2693  0.2299 -0.3901
19137SOL    HW158852   3.754   4.794  11.317 -0.1571 -0.3952  0.2455
19137SOL    HW258853   3.856   4.746  11.216 -3.1452 -2.3688 -2.0328
19138SOL     OW58854   2.854   4.836  11.075  0.5155  0.1352 -0.1854
19138SOL    HW158855   2.883   4.746  11.059  1.1722  0.3617 -0.3224
19138SOL    HW258856   2.861   4.847  11.170  0.5256  0.0727 -0.1791
19139SOL     OW58857   6.562   6.817   6.154  0.5309  0.1618  0.0175
19139SOL    HW158858   6.557   6.759   6.230 -0.5055  0.2550  0.0377
19139SOL    HW258859   6.538   6.904   6.189  0.9225  0.3731 -0.2374
19140SOL     OW58860   2.918   5.470   5.237  0.0653  0.0274  0.0944
19140SOL    HW158861   2.900   5.562   5.218  0.5824  0.2848  0.8099
19140SOL    HW258862   2.876   5.453   5.321 -0.6805 -0.6108 -0.3876
19141SOL     OW58863   1.561   6.062   2.054 -0.4665 -0.2957 -0.1725
19141SOL    HW158864   1.528   6.050   1.965 -0.3226  0.9435 -0.4024
19141SOL    HW258865   1.618   6.139   2.049 -1.1452  0.3267  1.1652
19142SOL     OW58866   0.879   7.601  11.822  0.5660  0.2092  0.5074
19142SOL    HW158867   0.822   7.650  11.881  1.7234  1.4003  0.6577
19142SOL    HW258868   0.818   7.562  11.759 -0.4402  1.3699  0.7170
19143SOL     OW58869   7.720   5.184   3.706 -0.4261 -0.1754  0.0705
19143SOL    HW158870   7.743   5.277   3.703 -2.9580  0.5893  1.0581
19143SOL    HW258871   7.654   5.179   3.776 -0.5610 -2.6654 -0.1672
19144SOL     OW58872   6.132   1.577   1.647  0.0391 -0.5245 -0.0882
19144SOL    HW158873   6.097   1.655   1.604  0.2667  0.3945  1.3722
19144SOL    HW258874   6.221   1.569   1.614  0.1533  0.0750  0.0643
19145SOL     OW58875   1.239   6.150  11.338 -0.1856  0.5911  0.1977
19145SOL    HW158876   1.221   6.058  11.360  2.5944  0.4221  2.3514
19145SOL    HW258877   1.258   6.149  11.244 -0.0726 -1.0865  0.2106
19146SOL     OW58878   3.787   7.582   2.984  0.6401  0.2348  0.3660
19146SOL    HW158879   3.692   7.579   2.979  0.5153 -0.3665  2.1247
19146SOL    HW258880   3.805   7.652   3.047  1.3853  0.6558 -0.2989
19147SOL     OW58881   7.660   7.018   5.799  0.1063  0.1045 -0.1775
19147SOL    HW158882   7.749   6.985   5.791  0.2043  0.3339 -0.0463
19147SOL    HW258883   7.627   6.981   5.881  1.0270  2.1719  1.2273
19148SOL     OW58884   4.237   1.428   0.563  0.3954 -0.3818  0.9552
19148SOL    HW158885   4.293   1.372   0.616  0.5244 -1.8888 -0.6971
19148SOL    HW258886   4.296   1.469   0.500  0.0366  0.2894  1.0343
19149SOL     OW58887   2.532   2.223  11.569  0.3813 -0.9227  0.0706
19149SOL    HW158888   2.613   2.267  11.591 -1.1013  1.7960  0.5382
19149SOL    HW258889   2.530   2.223  11.473 -0.1435  1.3059  0.0306
19150SOL     OW58890   1.279   5.999   1.342  0.2007  0.6281  0.2703
19150SOL    HW158891   1.190   6.035   1.340  0.5193  1.4103 -0.4299
19150SOL    HW258892   1.267   5.906   1.358 -0.9409  0.2171 -2.4336
19151SOL     OW58893   7.048   5.119   4.744 -0.0956 -0.3975  0.0477
19151SOL    HW158894   6.956   5.098   4.757 -0.5995 -0.1593 -2.6386
19151SOL    HW258895   7.086   5.041   4.705  0.4142  0.1236 -0.5164
19152SOL     OW58896   7.535   6.234   2.652  0.2459  0.0721  0.0431
19152SOL    HW158897   7.539   6.232   2.557 -0.3418 -0.5364  0.0296
19152SOL    HW258898   7.618   6.195   2.681  1.0701  1.5731 -0.2016
19153SOL     OW58899   2.345   5.295   5.740 -0.1469  0.0143  0.0119
19153SOL    HW158900   2.382   5.261   5.821  2.2636  0.5487 -0.7715
19153SOL    HW258901   2.307   5.379   5.764 -1.4832 -0.8206  0.9640
19154SOL     OW58902   6.974   6.550   4.387  0.0050 -0.1890 -0.4534
19154SOL    HW158903   7.006   6.636   4.359 -0.2360  0.4094  1.0459
19154SOL    HW258904   6.909   6.527   4.320 -0.9038  1.4236 -0.1859
19155SOL     OW58905   7.225   6.888   5.466  0.8550  0.4703 -0.0513
19155SOL    HW158906   7.309   6.853   5.495  0.1787  0.5597  2.2787
19155SOL    HW258907   7.169   6.811   5.457  0.6926  0.5556  0.2199
19156SOL     OW58908   6.659   1.173   2.959  0.2526 -0.4458 -0.1081
19156SOL    HW158909   6.581   1.123   2.938  1.2657 -1.3382 -1.9358
19156SOL    HW258910   6.679   1.150   3.050 -2.0897  0.5392  0.7355
19157SOL     OW58911   2.646   6.762   9.042  0.0701  0.2093  0.0074
19157SOL    HW158912   2.647   6.714   9.125  0.7025  1.0985  0.5445
19157SOL    HW258913   2.603   6.845   9.063 -0.1560  0.2705 -0.6680
19158SOL     OW58914   2.544   5.673   2.922  0.4610  0.0057  0.1976
19158SOL    HW158915   2.622   5.729   2.922  0.3655  0.1699 -1.1606
19158SOL    HW258916   2.471   5.734   2.931  0.3923  0.0363 -0.5550
19159SOL     OW58917   5.361   7.850   8.503 -0.2361 -0.4549 -0.3895
19159SOL    HW158918   5.281   7.898   8.521  0.1672  0.6484 -1.4511
19159SOL    HW258919   5.335   7.778   8.447 -0.6693 -0.8486  0.3050
19160SOL     OW58920   4.343   7.085   7.736  0.2675  0.3187  0.0785
19160SOL    HW158921   4.300   7.134   7.807 -0.5050 -0.6068  0.2754
19160SOL    HW258922   4.376   7.152   7.677  1.9845  1.1601  1.9003
19161SOL     OW58923   3.590   4.405   3.865  0.1815 -0.1941 -0.1369
19161SOL    HW158924   3.503   4.397   3.825  1.0980 -0.7337 -2.1342
19161SOL    HW258925   3.591   4.493   3.901 -0.3695  0.7637 -2.2678
19162SOL     OW58926   3.148   4.959   4.912  0.3090 -0.0880  0.1701
19162SOL    HW158927   3.109   5.036   4.871 -0.0705  0.6871  1.9177
19162SOL    HW258928   3.074   4.913   4.951  0.4472 -1.7012 -1.3489
19163SOL     OW58929   4.555   0.789   8.182  0.2730 -0.3067 -0.2999
19163SOL    HW158930   4.582   0.698   8.180 -0.5817 -0.6278  1.3880
19163SOL    HW258931   4.587   0.823   8.265 -1.4450  0.2364  0.1979
19164SOL     OW58932   3.560   5.151  10.235 -0.5374  0.3984  0.2713
19164SOL    HW158933   3.509   5.084  10.280 -1.6022  1.3886  0.5901
19164SOL    HW258934   3.552   5.228  10.290  0.8180  0.7602  0.0024
19165SOL     OW58935   2.180   4.435   3.929 -0.1821  0.4936 -0.2167
19165SOL    HW158936   2.250   4.501   3.928 -0.6940  1.0442 -0.0424
19165SOL    HW258937   2.142   4.441   4.016 -0.6666  0.4245 -0.4207
19166SOL     OW58938   2.078   1.455  10.453 -0.6791 -0.1047 -0.0058
19166SOL    HW158939   1.988   1.451  10.419 -0.0469  0.1272 -1.7849
19166SOL    HW258940   2.121   1.521  10.400  0.7155 -0.6095  0.4511
19167SOL     OW58941   2.725   2.280   2.424  0.6063  0.0384 -0.2298
19167SOL    HW158942   2.664   2.272   2.497 -2.0457 -0.2061 -2.3038
19167SOL    HW258943   2.756   2.371   2.428  0.1153  0.1688  0.8913
19168SOL     OW58944   5.216   6.396   2.176  0.0685  0.9011  0.0016
19168SOL    HW158945   5.253   6.475   2.215  0.7779  1.6552 -2.0745
19168SOL    HW258946   5.238   6.402   2.083  0.0010 -1.6587 -0.2568
19169SOL     OW58947   5.534   1.229   7.853  0.5243  0.2883  0.2481
19169SOL    HW158948   5.470   1.177   7.902 -0.0312  0.5607 -0.1793
19169SOL    HW258949   5.612   1.228   7.908  0.7908 -1.6484 -0.1069
19170SOL     OW58950   2.759   5.374  11.014  0.0888  0.6004 -0.1965
19170SOL    HW158951   2.683   5.343  10.965 -0.2038  2.7223 -1.2271
19170SOL    HW258952   2.758   5.469  11.001  3.4678  0.6413 -1.1084
19171SOL     OW58953   4.736   7.906   9.936  0.2750  0.1000  0.5352
19171SOL    HW158954   4.650   7.879   9.905  0.1541  1.1339 -0.0817
19171SOL    HW258955   4.718   7.958  10.015  0.4031 -0.4359  0.9204
19172SOL     OW58956   1.995   3.772   3.735 -0.2249 -0.3713  0.0233
19172SOL    HW158957   2.039   3.838   3.788 -2.5054  0.6894  0.7596
19172SOL    HW258958   1.980   3.699   3.795  1.0286 -0.9921 -0.3972
19173SOL     OW58959   3.492   3.529   7.830 -0.1511  0.6007  0.1062
19173SOL    HW158960   3.410   3.578   7.829  0.8664  2.4046  0.3235
19173SOL    HW258961   3.544   3.573   7.898  0.8906 -0.6810  0.1619
19174SOL     OW58962   5.903   6.137  10.015  0.1882  0.6608  0.2837
19174SOL    HW158963   5.979   6.169  10.063  0.8949 -2.6432  1.6589
19174SOL    HW258964   5.830   6.149  10.076  0.2286  0.7079  0.3232
19175SOL     OW58965   5.846   0.961   9.875  0.7045  0.2955  0.5023
19175SOL    HW158966   5.933   0.941   9.841  0.2274  0.3835 -0.8103
19175SOL    HW258967   5.802   1.008   9.805 -0.4809  0.0792  1.0620
19176SOL     OW58968   2.045   2.465   0.346  0.1560  0.0608  0.8452
19176SOL    HW158969   2.043   2.436   0.255 -0.7132  0.9957  0.5442
19176SOL    HW258970   2.138   2.476   0.366  0.3362  0.2617 -0.0690
19177SOL     OW58971   0.051   4.819   1.734  0.3243 -0.0486  0.0739
19177SOL    HW158972   0.078   4.906   1.763  2.8180 -0.4890 -0.7087
19177SOL    HW258973   0.040   4.828   1.640 -1.9234 -0.0488  0.2714
19178SOL     OW58974   1.856   2.150  10.192  0.0737  0.1370  0.1066
19178SOL    HW158975   1.820   2.062  10.189 -2.7537  1.1833  0.1763
19178SOL    HW258976   1.885   2.167  10.102 -2.5231  0.2499 -0.8049
19179SOL     OW58977   1.089   0.203   3.247  0.0213 -0.3674 -0.2146
19179SOL    HW158978   1.179   0.175   3.234  0.0052  0.3709 -2.3942
19179SOL    HW258979   1.036   0.130   3.217 -0.0971 -0.3085 -0.1519
19180SOL     OW58980   3.349   0.349  10.705  0.1054  0.2119 -0.5260
19180SOL    HW158981   3.343   0.257  10.677  1.1341  0.0785 -0.3610
19180SOL    HW258982   3.403   0.391  10.639 -0.7098  0.8133 -0.8275
19181SOL     OW58983   4.269   0.803  10.173  0.0559  0.0885  0.2030
19181SOL    HW158984   4.336   0.813  10.241  0.4597 -0.4774 -0.0990
19181SOL    HW258985   4.194   0.853  10.205 -0.6725 -2.1312  2.2333
19182SOL     OW58986   1.338   4.024  10.219 -0.2558  0.4252  1.2299
19182SOL    HW158987   1.327   4.119  10.215 -0.8242  0.3149 -1.4566
19182SOL    HW258988   1.433   4.011  10.215 -0.0298  0.8454  3.5125
19183SOL     OW58989   0.471   3.746   9.088  0.0994 -0.2158 -0.4793
19183SOL    HW158990   0.480   3.741   8.992 -0.8811 -1.7921 -0.5325
19183SOL    HW258991   0.378   3.731   9.104 -0.1374  2.1265  0.6639
19184SOL     OW58992   2.806   0.045   7.688  0.0471 -0.3019 -0.1470
19184SOL    HW158993   2.901   0.052   7.698 -0.0054  1.0972 -0.4055
19184SOL    HW258994   2.795  -0.017   7.616  0.7864 -0.1205 -0.4318
19185SOL     OW58995   6.059   1.233   2.417 -0.0263  0.2252  0.1209
19185SOL    HW158996   6.136   1.232   2.360 -0.2897 -1.9456 -0.2772
19185SOL    HW258997   5.988   1.198   2.363 -0.6118 -0.5459  1.3560
19186SOL     OW58998   0.049   4.708   6.745 -0.0956  0.7541 -0.0039
19186SOL    HW158999   0.085   4.756   6.670 -0.1334 -0.5960 -0.9203
19186SOL    HW259000   0.075   4.618   6.730 -2.5277 -0.0353  0.1170
19187SOL     OW59001   4.473   1.676   8.196  0.3099  0.4150  0.0905
19187SOL    HW159002   4.467   1.749   8.257  1.1138  0.5064  0.0668
19187SOL    HW259003   4.384   1.641   8.192 -0.3144  1.9833 -0.6350
19188SOL     OW59004   4.862   1.911   4.595 -0.4710 -0.1048  0.0151
19188SOL    HW159005   4.879   1.988   4.540 -1.2855 -0.0870 -0.2342
19188SOL    HW259006   4.944   1.896   4.642  0.1118  0.1291 -0.9009
19189SOL     OW59007   4.840   6.580   1.380 -0.2484 -0.1870 -0.4774
19189SOL    HW159008   4.783   6.582   1.457  1.3443 -0.4091  0.7685
19189SOL    HW259009   4.854   6.487   1.363  1.5056 -0.1991  0.6746
19190SOL     OW59010   5.278   4.644  12.327  0.1367  0.4704 -0.2337
19190SOL    HW159011   5.261   4.727  12.283  0.0621  1.9477  2.3842
19190SOL    HW259012   5.312   4.587  12.258  2.0706  3.2537 -1.7957
19191SOL     OW59013   2.035   1.657   6.336  0.7770  0.1197 -0.4858
19191SOL    HW159014   2.115   1.623   6.376 -0.1803 -0.5446  0.9744
19191SOL    HW259015   2.012   1.734   6.388 -0.5993 -0.8715  0.4621
19192SOL     OW59016   4.162   4.551   1.238  0.2142 -0.2313  0.3007
19192SOL    HW159017   4.239   4.498   1.258  0.4323 -1.0296 -2.3180
19192SOL    HW259018   4.195   4.623   1.185 -0.5534  0.7439  1.1098
19193SOL     OW59019   2.206   7.482   1.846 -0.2216  0.0660  0.3004
19193SOL    HW159020   2.225   7.574   1.827 -0.8446  0.0955 -0.2051
19193SOL    HW259021   2.277   7.434   1.803  0.5509  0.3399  1.2340
19194SOL     OW59022   7.168   6.245   6.880 -0.0049  0.2254  0.6109
19194SOL    HW159023   7.234   6.307   6.848  0.5125 -0.7711 -0.3327
19194SOL    HW259024   7.215   6.191   6.943  0.6171 -1.5526 -1.2472
19195SOL     OW59025   4.686   6.964   2.736 -0.1474 -0.0004 -0.3201
19195SOL    HW159026   4.684   6.886   2.681 -0.3398 -1.0685  1.1686
19195SOL    HW259027   4.763   7.012   2.706  0.4219 -1.1433 -0.7205
19196SOL     OW59028   5.725   0.234   6.171  0.1989 -0.0324  0.1685
19196SOL    HW159029   5.777   0.313   6.181  1.3664 -0.1051 -3.7943
19196SOL    HW259030   5.635   0.266   6.159  0.5494  0.6978 -0.6466
19197SOL     OW59031   3.644   3.840  10.106 -0.2319  0.3693 -0.7359
19197SOL    HW159032   3.574   3.905  10.096 -1.8083 -1.2468 -0.5845
19197SOL    HW259033   3.643   3.818  10.199  0.2499  0.0583 -0.8002
19198SOL     OW59034   7.042   0.344   2.436 -0.2987 -0.1097 -0.7169
19198SOL    HW159035   7.079   0.375   2.519 -0.1671 -3.0987  0.4378
19198SOL    HW259036   7.117   0.333   2.379 -0.0392 -0.7399 -0.2657
19199SOL     OW59037   3.598   1.303   7.843 -0.1673 -0.2786  0.1923
19199SOL    HW159038   3.640   1.302   7.928 -0.1265  1.4698  0.2262
19199SOL    HW259039   3.649   1.241   7.790  0.2191 -0.8685  1.2306
19200SOL     OW59040   3.746   6.737   6.377  0.5743 -0.4539 -0.3843
19200SOL    HW159041   3.708   6.697   6.299  0.1773  0.4395 -0.6566
19200SOL    HW259042   3.702   6.693   6.450 -0.8602  0.4017 -0.6895
19201SOL     OW59043   1.524   3.082  11.077  0.4722 -0.1160  0.3998
19201SOL    HW159044   1.451   3.084  11.016  1.4197 -0.8908 -0.7964
19201SOL    HW259045   1.557   2.992  11.073  1.0593  0.0330  1.4586
19202SOL     OW59046   0.673   3.499   0.527 -0.1911 -0.1008 -0.0778
19202SOL    HW159047   0.710   3.522   0.613  0.8715 -0.8733 -0.3058
19202SOL    HW259048   0.736   3.437   0.490 -1.5356 -1.1856 -0.6524
19203SOL     OW59049   7.619   3.434   9.776  0.1844 -0.0145  0.3400
19203SOL    HW159050   7.545   3.432   9.716  1.3094 -1.7113 -1.1120
19203SOL    HW259051   7.580   3.421   9.863 -1.3235  0.7621 -0.1892
19204SOL     OW59052   6.327   5.305   4.011 -0.2060  0.1126 -0.4488
19204SOL    HW159053   6.254   5.244   4.025 -0.2673  0.2061 -0.3582
19204SOL    HW259054   6.297   5.362   3.940 -0.6436  0.7997  0.2560
19205SOL     OW59055   5.204   1.809   7.207  0.6172  0.4164  0.3459
19205SOL    HW159056   5.293   1.782   7.186  1.1240  0.2636  2.4708
19205SOL    HW259057   5.215   1.889   7.258 -0.4392  0.2164  0.9198
19206SOL     OW59058   3.940   2.494   7.850  0.1138  0.3085 -0.2604
19206SOL    HW159059   3.866   2.471   7.794 -1.4492  1.4051  1.2577
19206SOL    HW259060   3.978   2.409   7.874 -2.6981 -0.6195  1.5158
19207SOL     OW59061   7.205   5.140  11.888 -0.1048  0.1705 -0.5045
19207SOL    HW159062   7.133   5.158  11.828  0.0296  0.9931 -0.4281
19207SOL    HW259063   7.167   5.084  11.955 -0.5770  0.2977 -0.6638
19208SOL     OW59064   5.556   6.892   0.378  0.3040 -0.4320 -0.4524
19208SOL    HW159065   5.621   6.897   0.448  0.1166 -1.3920 -0.2016
19208SOL    HW259066   5.492   6.827   0.409  0.7645 -1.6523 -1.9461
19209SOL     OW59067   3.068   7.619   2.011  0.0328 -0.3083 -0.3740
19209SOL    HW159068   2.976   7.621   2.036 -0.4967  1.3223 -2.1592
19209SOL    HW259069   3.114   7.591   2.090 -2.0640 -2.5039  0.2097
19210SOL     OW59070   4.747   3.026   5.592  0.0909 -0.1341  0.1875
19210SOL    HW159071   4.653   3.038   5.598  0.1281  0.1089  0.3206
19210SOL    HW259072   4.784   3.102   5.638  0.3568 -2.4813  4.3463
19211SOL     OW59073   1.484   3.480  11.814  0.1030  0.3962 -0.5843
19211SOL    HW159074   1.576   3.485  11.790  0.4947  0.3923  0.8558
19211SOL    HW259075   1.457   3.571  11.825  0.5257  0.3357  1.0995
19212SOL     OW59076   0.513   1.521   9.328  0.2132 -0.1511  0.0471
19212SOL    HW159077   0.518   1.438   9.280  0.2198 -0.6802  0.9381
19212SOL    HW259078   0.451   1.504   9.399  0.2832  0.5822  0.2952
19213SOL     OW59079   0.538   2.524  10.150  0.1773  0.0232 -0.7530
19213SOL    HW159080   0.591   2.580  10.093 -0.3659  2.1315  0.6825
19213SOL    HW259081   0.589   2.519  10.231 -0.0265 -1.1831 -0.6891
19214SOL     OW59082   6.506   2.625   3.738 -0.3384 -0.0655  0.5000
19214SOL    HW159083   6.482   2.704   3.786  0.1152  0.2148  0.2793
19214SOL    HW259084   6.423   2.593   3.702 -0.5440  0.2464  0.6903
19215SOL     OW59085   1.186   3.878   5.766  0.0997  0.2055  0.1598
19215SOL    HW159086   1.275   3.911   5.752 -0.1184  0.7949  0.1399
19215SOL    HW259087   1.198   3.791   5.802  0.7092 -0.6913 -2.0458
19216SOL     OW59088   5.742   1.492  10.101  0.1420  0.0186 -0.2472
19216SOL    HW159089   5.721   1.562  10.039 -2.5348  1.1226  1.7208
19216SOL    HW259090   5.813   1.527  10.154  2.0183 -0.6914 -2.1153
19217SOL     OW59091   0.446   0.977  12.181 -0.1254 -0.9849  0.5822
19217SOL    HW159092   0.480   0.936  12.261  1.0589  0.8886  1.1112
19217SOL    HW259093   0.354   0.994  12.200  0.0818 -0.7887  1.4661
19218SOL     OW59094   2.047   0.809   3.792  0.5785 -0.7613  0.2675
19218SOL    HW159095   2.045   0.893   3.747  0.4516 -0.6269  0.5213
19218SOL    HW259096   2.025   0.830   3.883  2.4253 -0.7976  0.7482
19219SOL     OW59097   1.236   0.061   4.320  0.3346  0.0857 -0.0728
19219SOL    HW159098   1.271   0.135   4.272 -1.0912  1.3427  0.7193
19219SOL    HW259099   1.309   0.001   4.330  1.4647  1.2722 -0.9658
19220SOL     OW59100   1.175   1.477   8.707 -0.3649  0.2555 -0.3882
19220SOL    HW159101   1.225   1.530   8.645  0.7694 -1.0019 -0.6048
19220SOL    HW259102   1.137   1.407   8.653 -0.6005 -0.0023  0.1091
19221SOL     OW59103   6.071   2.948  10.090 -0.5033  0.0163 -0.0267
19221SOL    HW159104   6.053   2.858  10.061  1.5632 -0.5974  0.3825
19221SOL    HW259105   6.001   3.000  10.051 -2.0680 -1.8277  0.1427
19222SOL     OW59106   5.457   2.696   5.238 -0.1083 -0.0321  0.6607
19222SOL    HW159107   5.549   2.720   5.249 -0.4101  0.8854  1.3139
19222SOL    HW259108   5.460   2.612   5.192  1.0581 -0.1605  0.9263
19223SOL     OW59109   2.362   7.173   7.783 -0.4942  0.0517  0.5703
19223SOL    HW159110   2.336   7.227   7.708  1.1429 -2.0509 -1.6496
19223SOL    HW259111   2.289   7.113   7.796 -1.0252  0.7877  1.0768
19224SOL     OW59112   5.643   5.514   5.208 -0.0189 -0.3395  0.5807
19224SOL    HW159113   5.714   5.546   5.264 -1.3219  2.6120  0.7043
19224SOL    HW259114   5.566   5.514   5.264 -0.7369 -0.4924 -0.3774
19225SOL     OW59115   3.124   1.212   2.514 -0.1652  0.1731  0.9640
19225SOL    HW159116   3.148   1.119   2.509  1.7426  0.6678 -0.3792
19225SOL    HW259117   3.060   1.225   2.444 -0.6823 -0.1764  1.3647
19226SOL     OW59118   1.037   7.605   0.034  0.4152 -0.4516 -0.3958
19226SOL    HW159119   1.017   7.516   0.065 -1.9149 -0.0554 -0.5740
19226SOL    HW259120   0.987   7.662   0.092  2.7539  0.8724  0.4210
19227SOL     OW59121   6.968   1.166   3.301  0.1889  0.6221  0.1782
19227SOL    HW159122   7.055   1.182   3.266 -0.2071  1.4638 -0.4685
19227SOL    HW259123   6.964   1.216   3.382  1.1236 -1.3629  1.5126
19228SOL     OW59124   6.670   1.432  10.270  0.1146 -0.6885  0.5265
19228SOL    HW159125   6.760   1.408  10.247 -0.0462 -1.3980  0.6321
19228SOL    HW259126   6.658   1.518  10.230  0.1880 -1.4340 -1.1735
19229SOL     OW59127   1.472   7.828  10.451  0.2272  0.4181 -0.3565
19229SOL    HW159128   1.378   7.837  10.436  0.0020  0.8224  1.1144
19229SOL    HW259129   1.479   7.810  10.545  1.4734 -2.0509 -0.8309
19230SOL     OW59130   2.341   4.992   6.456 -0.0075 -0.2314 -0.7636
19230SOL    HW159131   2.340   5.060   6.389 -0.4100  1.3205  0.7326
19230SOL    HW259132   2.249   4.979   6.480  0.2553  1.4410  1.5148
19231SOL     OW59133   6.022   3.604   2.112 -0.2027  0.4263  0.1213
19231SOL    HW159134   6.084   3.586   2.182 -2.2815 -0.4593  1.8786
19231SOL    HW259135   6.026   3.526   2.056 -0.3804 -0.0627  0.7708
19232SOL     OW59136   0.318   2.673   9.696  0.7444 -0.2697 -0.5605
19232SOL    HW159137   0.350   2.709   9.613 -0.1788 -2.0423 -1.7252
19232SOL    HW259138   0.381   2.605   9.718  0.3539 -0.5804 -0.4054
19233SOL     OW59139   1.984   3.484   4.171 -0.2856 -0.4814  0.0291
19233SOL    HW159140   1.972   3.562   4.117  1.3514 -1.1135 -1.3303
19233SOL    HW259141   1.902   3.477   4.220 -0.9993  1.3205 -0.7903
19234SOL     OW59142   5.990   4.015  12.319 -0.3168 -0.1170 -0.0610
19234SOL    HW159143   5.919   4.000  12.257  0.7245 -1.7170 -0.9311
19234SOL    HW259144   5.956   3.983  12.403 -0.9864  0.0942 -0.2484
19235SOL     OW59145   2.888   3.298   0.174  0.2650  0.5163 -0.4779
19235SOL    HW159146   2.946   3.306   0.098 -0.1338  0.2477 -0.8095
19235SOL    HW259147   2.889   3.386   0.213 -0.4620  0.9824 -1.4784
19236SOL     OW59148   0.024   1.711  11.657  0.1899  0.0774 -0.0892
19236SOL    HW159149  -0.058   1.675  11.692  1.5145 -0.3062  2.8953
19236SOL    HW259150   0.084   1.637  11.655  0.6215  0.4151 -2.0119
19237SOL     OW59151   1.678   7.162   4.899 -0.6209 -0.0434 -0.4320
19237SOL    HW159152   1.646   7.074   4.920 -1.5327  0.2213 -0.6393
19237SOL    HW259153   1.765   7.148   4.862 -0.4296 -0.7891  0.2646
19238SOL     OW59154   7.092   2.494   0.897 -0.0967  0.5759  0.0390
19238SOL    HW159155   7.060   2.545   0.823 -0.8758  1.3919  0.9046
19238SOL    HW259156   7.177   2.532   0.918  0.0425  0.4624 -0.3178
19239SOL     OW59157   2.301   6.343   7.865 -0.4776  0.0842 -0.3793
19239SOL    HW159158   2.348   6.261   7.882 -0.7191  0.0334  0.0648
19239SOL    HW259159   2.371   6.407   7.849 -0.2706 -0.1138 -0.2798
19240SOL     OW59160   0.580   7.584   1.918 -0.3455 -0.4435  0.2619
19240SOL    HW159161   0.633   7.533   1.979  0.2732  0.5350  0.5539
19240SOL    HW259162   0.639   7.600   1.844 -0.6552 -0.4582  0.0133
19241SOL     OW59163   2.659   6.947  10.163  0.2352  0.1129 -0.4620
19241SOL    HW159164   2.647   6.963  10.256 -1.8870 -0.0634 -0.6572
19241SOL    HW259165   2.661   7.034  10.124 -1.3833  0.1698 -0.4807
19242SOL     OW59166   2.527   0.381   0.130  0.7507 -0.2820  0.4238
19242SOL    HW159167   2.567   0.344   0.051  1.8228 -0.3849  0.9940
19242SOL    HW259168   2.459   0.318   0.153  0.3470 -0.1847 -0.4900
19243SOL     OW59169   5.996   4.195  11.603  0.3970  0.2773 -0.6359
19243SOL    HW159170   5.999   4.239  11.687 -0.6069  0.1776 -0.5436
19243SOL    HW259171   6.048   4.251  11.545  2.5682 -0.5224  0.4189
19244SOL     OW59172   3.741   1.469   4.651  0.5265 -0.1287 -0.1982
19244SOL    HW159173   3.763   1.441   4.562 -0.2006  1.7040 -0.9898
19244SOL    HW259174   3.663   1.418   4.674  0.5610 -0.4096 -0.7053
19245SOL     OW59175   0.273   5.253  12.457 -0.1701 -0.7218  0.2928
19245SOL    HW159176   0.234   5.335  12.488 -0.1543 -0.4785 -0.3144
19245SOL    HW259177   0.337   5.230  12.524  0.1237 -0.0121  0.2694
19246SOL     OW59178   3.906   5.061   9.425  0.2241  0.4071 -0.3759
19246SOL    HW159179   3.827   5.007   9.436 -0.7291  2.0922  1.9170
19246SOL    HW259180   3.956   5.016   9.357 -2.2238 -1.2809 -1.2229
19247SOL     OW59181   1.909   3.710   0.779 -0.5440  0.2619  0.3750
19247SOL    HW159182   1.895   3.803   0.796 -1.2606  0.5277 -1.4603
19247SOL    HW259183   1.910   3.703   0.683  0.8299 -1.4328  0.4630
19248SOL     OW59184   6.664   6.095   0.950 -0.2484  0.1019 -0.1583
19248SOL    HW159185   6.607   6.077   0.875  0.1764  1.4323 -0.8275
19248SOL    HW259186   6.749   6.117   0.911  0.0737  0.4692  0.7230
19249SOL     OW59187   7.072   7.419   6.198  0.5148  0.0346 -0.7553
19249SOL    HW159188   7.144   7.451   6.144  1.0080  0.0191 -0.1211
19249SOL    HW259189   7.106   7.423   6.288 -0.2118 -0.1445 -0.4674
19250SOL     OW59190   6.090   5.596  11.095 -0.0389  0.1101 -0.0922
19250SOL    HW159191   6.020   5.535  11.073  0.7512 -1.0927  0.6131
19250SOL    HW259192   6.050   5.682  11.090 -0.9659 -0.3916 -1.9666
19251SOL     OW59193   5.562   3.766   5.078 -0.0236  0.3528 -0.0395
19251SOL    HW159194   5.544   3.698   5.144 -0.4482  0.7055  0.2095
19251SOL    HW259195   5.476   3.799   5.053  0.2074  1.2958  0.3668
19252SOL     OW59196   0.548   2.451   2.448  0.1518  0.2497  0.1035
19252SOL    HW159197   0.486   2.509   2.493  0.4528  0.8177 -0.2089
19252SOL    HW259198   0.493   2.379   2.415 -0.2319  0.3789  0.4430
19253SOL     OW59199   6.405   1.773   6.584 -0.6692 -0.7805  0.2498
19253SOL    HW159200   6.372   1.698   6.534  0.2748 -0.5935 -0.6816
19253SOL    HW259201   6.465   1.817   6.524  0.1621 -0.3046  1.4051
19254SOL     OW59202   6.808   5.929   9.940  0.1098 -0.3884 -0.2108
19254SOL    HW159203   6.824   5.927  10.035  1.1001 -1.9740 -0.3605
19254SOL    HW259204   6.751   5.854   9.924 -1.7344  1.0332 -0.6603
19255SOL     OW59205   6.861   0.347   8.057  0.4221  0.9090  0.3678
19255SOL    HW159206   6.926   0.284   8.026 -0.8015  0.0922 -0.6310
19255SOL    HW259207   6.859   0.414   7.988  0.7955  1.3664  0.8004
19256SOL     OW59208   5.617   7.548   8.529 -0.2244 -0.2796  0.1178
19256SOL    HW159209   5.536   7.536   8.579  1.0066 -0.8115  2.1054
19256SOL    HW259210   5.676   7.481   8.562  1.0478  0.0647 -1.3177
19257SOL     OW59211   5.485   5.418  11.807  0.0716  0.4946  0.1123
19257SOL    HW159212   5.494   5.338  11.755 -0.8191  1.4666 -1.5978
19257SOL    HW259213   5.445   5.388  11.889  0.7630 -0.9481 -0.0260
19258SOL     OW59214   6.877   6.736   0.618 -0.3283 -0.3055 -0.4796
19258SOL    HW159215   6.894   6.810   0.560 -1.9969 -0.1682 -0.8533
19258SOL    HW259216   6.958   6.686   0.617  0.5117  1.0000 -0.9769
19259SOL     OW59217   4.482   6.851   0.934 -0.0170  0.0576 -0.2652
19259SOL    HW159218   4.472   6.946   0.938 -1.1950  0.0380 -1.9606
19259SOL    HW259219   4.395   6.818   0.909  0.4696 -1.4361 -0.1048
19260SOL     OW59220   6.441   4.145   0.496  0.0666 -0.4027  0.0748
19260SOL    HW159221   6.374   4.085   0.529  1.4540 -1.9157  0.2994
19260SOL    HW259222   6.417   4.230   0.532 -0.4102 -1.3530  2.1517
19261SOL     OW59223   6.955   6.593   1.077  0.3853  0.1244  0.1525
19261SOL    HW159224   6.900   6.647   1.021 -1.1014 -0.2232  1.2156
19261SOL    HW259225   6.989   6.525   1.019  2.3658  2.1471 -1.2359
19262SOL     OW59226   0.843   4.323   4.122 -0.1781 -0.3285 -0.7182
19262SOL    HW159227   0.901   4.387   4.163 -0.1536 -1.3487  0.8927
19262SOL    HW259228   0.764   4.373   4.100  0.2104  0.4576 -0.3556
19263SOL     OW59229   5.121   7.332   9.236 -0.2218 -0.2049  0.1286
19263SOL    HW159230   5.216   7.323   9.239  0.0137  1.7834  0.2232
19263SOL    HW259231   5.091   7.308   9.323  0.3556  0.4484  0.5176
19264SOL     OW59232   7.628   6.281   6.935 -0.2340  0.4788 -0.5032
19264SOL    HW159233   7.654   6.205   6.986 -0.3663  0.6173 -0.2291
19264SOL    HW259234   7.655   6.357   6.988 -0.4250  0.6222 -0.6098
19265SOL     OW59235   2.134   0.629   2.046 -0.3323 -0.0689  0.3206
19265SOL    HW159236   2.100   0.693   1.983  0.3668  2.5953  2.5008
19265SOL    HW259237   2.222   0.659   2.067 -0.4680 -0.9630  2.4430
19266SOL     OW59238   4.103   2.426   5.273  0.0907 -0.1864 -0.0739
19266SOL    HW159239   4.177   2.431   5.213  0.2707 -1.2312  0.0499
19266SOL    HW259240   4.054   2.507   5.257  1.0759  0.3636 -0.3838
19267SOL     OW59241   2.569   1.919   8.669 -0.0214 -0.0510 -0.1884
19267SOL    HW159242   2.548   1.853   8.734 -1.5672 -0.1654 -0.7464
19267SOL    HW259243   2.534   2.000   8.705  1.1677  0.3305  0.1395
19268SOL     OW59244   3.681   5.759  11.196  0.4689  0.5142 -0.0187
19268SOL    HW159245   3.687   5.728  11.286  0.6928  3.1155  0.9653
19268SOL    HW259246   3.653   5.851  11.204  0.7050  0.8958 -2.5840
19269SOL     OW59247   1.278   0.105   5.667  0.2635  0.4082 -0.1646
19269SOL    HW159248   1.232   0.171   5.718  0.5597  0.0202  0.6209
19269SOL    HW259249   1.370   0.133   5.668  0.4657 -0.2604  0.5762
19270SOL     OW59250   1.392   7.770   2.608 -0.4915  0.6341  0.1682
19270SOL    HW159251   1.321   7.723   2.564 -0.3280 -0.0969  0.6725
19270SOL    HW259252   1.454   7.791   2.537 -1.3777  1.6059 -0.3320
19271SOL     OW59253   3.443   6.641  12.008 -0.3055  0.0836 -0.1064
19271SOL    HW159254   3.430   6.734  12.023 -0.8977  0.3068 -1.8063
19271SOL    HW259255   3.417   6.599  12.090 -1.2653  1.3249  0.2473
19272SOL     OW59256   7.424   3.350   2.839  0.4607 -0.5786  0.0190
19272SOL    HW159257   7.405   3.406   2.765  1.4524  0.7750  0.7469
19272SOL    HW259258   7.382   3.266   2.818 -0.6366  0.2740 -1.3046
19273SOL     OW59259   2.561   5.988   5.524  0.7153  0.5130  0.4616
19273SOL    HW159260   2.526   6.005   5.612 -1.3310 -0.5561 -0.0849
19273SOL    HW259261   2.537   6.065   5.473  0.4653  0.4304  0.4539
19274SOL     OW59262   6.578   1.434   5.747 -0.0909  0.8810 -0.4733
19274SOL    HW159263   6.650   1.462   5.803  0.4400  1.3266 -1.3549
19274SOL    HW259264   6.501   1.478   5.783 -0.0961 -0.1997  0.9428
19275SOL     OW59265   4.494   3.500   0.729 -0.1283  0.3247 -0.0977
19275SOL    HW159266   4.520   3.495   0.637 -0.1539  0.7921 -0.1346
19275SOL    HW259267   4.498   3.593   0.750  5.2382 -0.0227  1.9290
19276SOL     OW59268   5.302   1.546   4.426  0.0669  0.3655  0.0909
19276SOL    HW159269   5.344   1.461   4.432  1.0877  0.6147 -2.2424
19276SOL    HW259270   5.337   1.596   4.499  0.8008 -0.6679  0.4625
19277SOL     OW59271   7.956   1.229   5.894  0.0281  0.3287 -0.2689
19277SOL    HW159272   7.991   1.183   5.817 -0.4582  0.2052 -0.4251
19277SOL    HW259273   8.033   1.252   5.946  0.2414 -2.9165  1.1238
19278SOL     OW59274   4.242   2.100   2.262 -0.0325  0.6196  0.0546
19278SOL    HW159275   4.148   2.091   2.243 -0.1173 -1.1717  1.0975
19278SOL    HW259276   4.248   2.177   2.319 -0.8342  0.8292 -0.1315
19279SOL     OW59277   2.415   4.366   7.904  0.0722 -0.1371  0.8977
19279SOL    HW159278   2.445   4.281   7.874  0.3554 -0.7107  2.7148
19279SOL    HW259279   2.494   4.421   7.903 -0.4001  0.6547 -1.8456
19280SOL     OW59280   7.158   0.827   5.359 -0.3812 -0.0796 -0.2393
19280SOL    HW159281   7.213   0.901   5.336  0.1413 -0.8699 -1.6536
19280SOL    HW259282   7.186   0.804   5.448  1.0190  0.0474 -0.6223
19281SOL     OW59283   1.780   5.316   5.279 -0.2947 -0.1610  0.0971
19281SOL    HW159284   1.750   5.298   5.368 -0.1357  0.1509  0.2121
19281SOL    HW259285   1.861   5.265   5.270  0.1202  0.4366  0.4028
19282SOL     OW59286   5.590   5.655   7.255  0.0038 -0.2306  0.6870
19282SOL    HW159287   5.594   5.559   7.248  0.1703 -0.1902  0.1989
19282SOL    HW259288   5.497   5.675   7.262 -0.4145 -0.1941 -3.0285
19283SOL     OW59289   2.995   1.813   0.364  0.4778  0.1927 -0.3976
19283SOL    HW159290   2.936   1.810   0.439  1.1022  0.0029  0.0875
19283SOL    HW259291   3.013   1.906   0.351  2.3703  0.1360  1.2893
19284SOL     OW59292   2.575   5.554   3.937  0.6877  0.1125  0.0021
19284SOL    HW159293   2.621   5.613   3.997 -1.4670 -0.1102  2.0177
19284SOL    HW259294   2.617   5.469   3.952  2.2164  0.6233 -1.1595
19285SOL     OW59295   5.822   3.778   1.995 -0.4621  0.0762 -0.2882
19285SOL    HW159296   5.863   3.720   2.061  1.6907  2.6038  0.7635
19285SOL    HW259297   5.826   3.727   1.914  0.9460 -1.4315  0.6449
19286SOL     OW59298   3.127   2.477   7.574  0.2725 -0.4073  0.4550
19286SOL    HW159299   3.082   2.551   7.614  1.1278  2.4973 -3.3686
19286SOL    HW259300   3.204   2.463   7.630 -0.0683  1.3695  1.4568
19287SOL     OW59301   5.414   0.282   6.189  0.1018  0.1859  0.5124
19287SOL    HW159302   5.382   0.230   6.115 -0.9314  0.1935  0.9421
19287SOL    HW259303   5.389   0.372   6.167  1.6519  0.4916 -0.1039
19288SOL     OW59304   7.389   5.247   4.774  0.6033  0.3261  0.5866
19288SOL    HW159305   7.409   5.337   4.802 -0.3333  0.2869  1.4260
19288SOL    HW259306   7.336   5.211   4.845  0.3972 -0.6662 -0.0554
19289SOL     OW59307   3.495   1.570   2.339 -0.5978 -0.5933 -0.1584
19289SOL    HW159308   3.455   1.485   2.326 -2.1193  0.1787 -0.7483
19289SOL    HW259309   3.451   1.607   2.415 -0.6199  0.0451 -0.4734
19290SOL     OW59310   3.289   1.475   4.553  0.5204 -0.1002 -0.2739
19290SOL    HW159311   3.331   1.532   4.618  0.1810  1.1864 -1.1292
19290SOL    HW259312   3.211   1.524   4.525  1.2132 -0.1026 -2.4043
19291SOL     OW59313   0.504   2.094   8.467 -0.1065 -0.0991 -0.2087
19291SOL    HW159314   0.581   2.124   8.419 -0.2260 -1.3906 -1.2717
19291SOL    HW259315   0.477   2.014   8.422 -0.3007 -1.3481  1.9521
19292SOL     OW59316   6.799   5.827   0.092 -0.8553  0.6646  0.4429
19292SOL    HW159317   6.713   5.830   0.132 -1.1476  0.7160 -0.1723
19292SOL    HW259318   6.853   5.776   0.153 -0.9612  1.7505  1.4773
19293SOL     OW59319   4.968   3.368   2.102 -0.0022 -0.1396  0.6905
19293SOL    HW159320   5.038   3.421   2.064 -2.4589  2.3617 -0.7262
19293SOL    HW259321   4.963   3.291   2.046 -1.1550  1.7635 -2.0704
19294SOL     OW59322   6.748   4.698  10.187  0.0367 -0.0252 -0.4041
19294SOL    HW159323   6.777   4.780  10.228  0.4517 -0.1026 -0.5393
19294SOL    HW259324   6.698   4.653  10.256 -0.6674  0.5851 -0.5003
19295SOL     OW59325   6.013   0.493   7.212  0.2469  0.4574 -0.6931
19295SOL    HW159326   6.097   0.449   7.227  0.0099  0.1420 -0.2682
19295SOL    HW259327   5.948   0.423   7.215 -0.0671  0.7441 -0.6947
19296SOL     OW59328   6.532   1.653  11.795 -0.2189  0.3032 -0.2784
19296SOL    HW159329   6.612   1.634  11.747  1.2831  0.8726  1.8148
19296SOL    HW259330   6.475   1.579  11.777  2.0454 -1.8459  0.7011
19297SOL     OW59331   6.421   7.887   8.915  0.2392 -0.0294  0.1696
19297SOL    HW159332   6.359   7.919   8.849 -0.5842 -1.2451  0.3077
19297SOL    HW259333   6.430   7.959   8.977 -1.1206  0.1645  0.1767
19298SOL     OW59334   5.403   0.123   6.663 -0.1298 -0.4465  0.0125
19298SOL    HW159335   5.414   0.187   6.592  0.3142  1.2816  1.5589
19298SOL    HW259336   5.310   0.099   6.658  0.0473 -0.9491 -1.5862
19299SOL     OW59337   7.551   4.518   1.567  0.2800 -0.4220 -0.4346
19299SOL    HW159338   7.569   4.603   1.607  1.3172 -0.4513 -0.8271
19299SOL    HW259339   7.473   4.486   1.613 -0.1144  0.7313 -0.2798
19300SOL     OW59340   5.937   3.017   3.973  0.4145 -0.0691 -0.3464
19300SOL    HW159341   5.926   3.111   3.987  2.3860  0.3266 -1.1596
19300SOL    HW259342   5.867   2.976   4.024 -0.0349  1.7973  0.5851
19301SOL     OW59343   5.850   5.993   6.092 -0.3889 -0.3126 -0.5273
19301SOL    HW159344   5.911   6.041   6.036 -0.6355  0.5238 -0.0990
19301SOL    HW259345   5.773   6.050   6.098 -0.5683 -0.6257  0.2294
19302SOL     OW59346   4.544   5.358   6.484  0.2238 -0.6127  1.1117
19302SOL    HW159347   4.476   5.398   6.429  0.7857  0.5475  1.2254
19302SOL    HW259348   4.626   5.379   6.439  0.7610  1.0139  2.7123
19303SOL     OW59349   0.382   2.678   1.861 -0.4759 -0.0081  0.0033
19303SOL    HW159350   0.444   2.607   1.875 -0.1749 -0.5055 -3.0293
19303SOL    HW259351   0.436   2.757   1.858 -0.6729  0.2601  2.2529
19304SOL     OW59352   0.347   5.656   1.810 -0.0627  0.5509  0.0752
19304SOL    HW159353   0.401   5.722   1.853 -2.4730  1.7972  1.4447
19304SOL    HW259354   0.372   5.573   1.852  0.4803  1.1436  0.9535
19305SOL     OW59355   2.595   3.810  11.767 -0.2183  0.0313  0.3621
19305SOL    HW159356   2.586   3.764  11.683 -0.2241  0.5097  0.0974
19305SOL    HW259357   2.532   3.767  11.825 -0.6086  0.0575 -0.0394
19306SOL     OW59358   4.698   0.441  10.695  0.3728 -0.1048 -0.3870
19306SOL    HW159359   4.655   0.447  10.609  0.6165 -1.9635 -0.6982
19306SOL    HW259360   4.791   0.426  10.674  0.6753  0.8041  0.2423
19307SOL     OW59361   4.976   7.463   8.096  0.2799  0.2744 -0.4307
19307SOL    HW159362   5.071   7.471   8.092  0.2357  0.7964 -0.5375
19307SOL    HW259363   4.952   7.416   8.016  0.6442 -1.9758  0.7143
19308SOL     OW59364   6.099   1.688   8.401 -0.1047  0.2706  0.0351
19308SOL    HW159365   6.006   1.690   8.376 -0.9266 -1.5368  2.4763
19308SOL    HW259366   6.117   1.776   8.434 -1.7288  0.0646  1.6993
19309SOL     OW59367   0.328   1.799   7.871 -0.1952  0.0668  0.4797
19309SOL    HW159368   0.295   1.725   7.819  0.1538  0.8363 -0.8984
19309SOL    HW259369   0.393   1.840   7.814 -0.2658  1.3459  1.2942
19310SOL     OW59370   7.551   6.091   2.416  0.0353 -0.0070 -0.3110
19310SOL    HW159371   7.609   6.083   2.340 -0.5208 -1.0284 -0.6417
19310SOL    HW259372   7.519   6.003   2.432 -1.7530  0.5689 -0.3983
19311SOL     OW59373   5.394   6.706  10.114  0.1013 -0.1707  0.0183
19311SOL    HW159374   5.443   6.654  10.050 -2.3494 -1.9825 -0.4915
19311SOL    HW259375   5.359   6.643  10.176 -1.7096  0.9907  0.2582
19312SOL     OW59376   4.414   7.668   5.936  0.0103  0.0741 -0.3937
19312SOL    HW159377   4.401   7.683   5.842 -1.9292  1.0036 -0.0257
19312SOL    HW259378   4.400   7.574   5.947  0.1877 -0.0340 -1.0281
19313SOL     OW59379   5.155   3.856  11.237  0.4144  0.0418  0.2028
19313SOL    HW159380   5.152   3.809  11.153  0.9330  1.7996 -0.8553
19313SOL    HW259381   5.163   3.787  11.303 -0.9432 -1.4491 -1.1076
19314SOL     OW59382   7.806   0.839   4.800  0.5188 -0.1857  0.2951
19314SOL    HW159383   7.847   0.794   4.726  0.2566 -0.0967  0.0936
19314SOL    HW259384   7.879   0.874   4.850  0.6688  0.5201 -0.4025
19315SOL     OW59385   6.927   6.899  12.377  0.1268 -0.0486 -0.8089
19315SOL    HW159386   6.858   6.833  12.382 -1.3370  1.4795  0.1120
19315SOL    HW259387   6.954   6.913  12.468  3.8152 -2.6673 -1.2720
19316SOL     OW59388   5.564   7.083   9.624 -0.2800  0.7151  1.0767
19316SOL    HW159389   5.484   7.079   9.676 -0.1669 -0.5248  1.1938
19316SOL    HW259390   5.534   7.086   9.533 -0.4572  0.8874  1.1393
19317SOL     OW59391   5.507   7.286   4.161 -0.2365  0.5134  0.0464
19317SOL    HW159392   5.532   7.282   4.253  0.3332  1.2715 -0.0617
19317SOL    HW259393   5.580   7.331   4.118 -2.1270  3.7745 -0.1197
19318SOL     OW59394   4.071   3.908   0.705  0.3928 -0.2297 -0.0051
19318SOL    HW159395   4.125   3.893   0.628  1.7562 -0.6075  0.9972
19318SOL    HW259396   4.034   3.995   0.691 -0.3387 -0.7420 -1.6137
19319SOL     OW59397   7.965   3.462   2.935 -0.1645  0.4527  0.1983
19319SOL    HW159398   8.059   3.444   2.940  0.3515  2.4691 -0.9586
19319SOL    HW259399   7.944   3.501   3.020 -0.2610 -1.0630  0.9062
19320SOL     OW59400   4.497   6.083   6.109 -0.0344 -0.0354  0.3697
19320SOL    HW159401   4.567   6.029   6.073 -1.9697 -2.9601  0.6062
19320SOL    HW259402   4.510   6.079   6.204 -1.4681 -2.1684  0.5348
19321SOL     OW59403   3.579   5.688   4.068  0.3289  0.2586 -0.4695
19321SOL    HW159404   3.510   5.625   4.047  1.4654 -0.2741 -2.9437
19321SOL    HW259405   3.544   5.772   4.038  0.2495  0.2009 -0.5399
19322SOL     OW59406   5.400   4.011   1.751 -0.2213  0.2339  0.1450
19322SOL    HW159407   5.430   4.004   1.660 -1.6251 -0.1398 -0.3265
19322SOL    HW259408   5.477   3.992   1.804  0.4813 -0.1546 -0.9859
19323SOL     OW59409   1.903   4.229  11.879  0.5372 -0.2570 -0.0961
19323SOL    HW159410   1.832   4.191  11.932 -0.0821 -1.5057 -1.7329
19323SOL    HW259411   1.983   4.206  11.926 -0.0461  0.2173  1.2049
19324SOL     OW59412   0.502   0.181   0.805  0.3227 -0.0954 -0.0513
19324SOL    HW159413   0.573   0.238   0.776  0.5488 -0.7382 -0.7954
19324SOL    HW259414   0.480   0.213   0.893  2.8770 -1.1141  1.0779
19325SOL     OW59415   6.229   2.774   8.281  0.1926  0.0422  0.2192
19325SOL    HW159416   6.309   2.786   8.332 -0.7275  0.2725  1.6437
19325SOL    HW259417   6.256   2.718   8.208  1.4905 -0.5181  1.0914
19326SOL     OW59418   4.146   1.618   1.441  0.0954 -0.6657 -0.8239
19326SOL    HW159419   4.215   1.637   1.506 -2.1600  1.7813  1.0671
19326SOL    HW259420   4.128   1.525   1.453  0.4389 -0.4991  1.4150
19327SOL     OW59421   7.235   5.135  11.530  0.5088  0.1706  0.1783
19327SOL    HW159422   7.293   5.118  11.456  1.4450  0.7282  0.7542
19327SOL    HW259423   7.238   5.055  11.582  2.0078  0.6925  0.9884
19328SOL     OW59424   5.714   5.004   6.971 -0.3741 -0.3969  0.2250
19328SOL    HW159425   5.628   5.013   6.931  0.0116 -0.1586 -0.5655
19328SOL    HW259426   5.696   4.970   7.059 -1.2016 -1.6043 -0.3784
19329SOL     OW59427   3.163   5.835   1.931  0.1172 -0.0219 -0.4224
19329SOL    HW159428   3.232   5.872   1.985 -0.3798  1.1147 -0.5414
19329SOL    HW259429   3.108   5.786   1.992 -0.5186  1.3644  0.1505
19330SOL     OW59430   0.084   3.807   1.433  0.0339 -0.5319  0.0134
19330SOL    HW159431   0.130   3.823   1.516  0.3367 -1.9972  0.1602
19330SOL    HW259432  -0.007   3.829   1.451  0.4750  1.5100 -0.0019
19331SOL     OW59433   2.631   2.891  11.507 -0.3491 -0.1185  0.0279
19331SOL    HW159434   2.708   2.946  11.521  0.4811 -1.0869 -0.6053
19331SOL    HW259435   2.629   2.834  11.584 -0.5044 -0.0220  0.0960
19332SOL     OW59436   4.750   3.180   5.265  0.2604  0.8342  0.0985
19332SOL    HW159437   4.812   3.175   5.193 -0.0135 -1.2000 -0.0525
19332SOL    HW259438   4.664   3.164   5.224 -0.1928  2.0620  0.5300
19333SOL     OW59439   4.157   7.872   0.469 -0.5429  0.3904 -0.2513
19333SOL    HW159440   4.249   7.885   0.494 -0.7204 -0.8836  1.1978
19333SOL    HW259441   4.129   7.957   0.435  0.6085  1.3743  1.1302
19334SOL     OW59442   5.563   4.203   7.652 -0.4827 -0.0107  0.0367
19334SOL    HW159443   5.579   4.294   7.677  0.4019  0.0276 -0.6446
19334SOL    HW259444   5.517   4.166   7.727  0.3943  0.6311  0.9235
19335SOL     OW59445   3.134   2.607  11.688 -0.1740 -0.2701 -0.1820
19335SOL    HW159446   3.090   2.690  11.708 -0.0871 -0.3630  0.4202
19335SOL    HW259447   3.212   2.607  11.743 -0.1104 -0.6968 -0.2667
19336SOL     OW59448   2.991   1.066   7.915  0.4988  0.2811 -0.5630
19336SOL    HW159449   2.968   0.975   7.896  0.4101  0.3882 -0.9823
19336SOL    HW259450   2.907   1.111   7.924  0.5417  0.3017 -0.2503
19337SOL     OW59451   3.938   7.755   0.567 -0.3223  0.1857 -0.1819
19337SOL    HW159452   3.880   7.717   0.501  0.9770 -1.4051 -0.4940
19337SOL    HW259453   3.996   7.812   0.517 -0.2587  0.1007 -0.2064
19338SOL     OW59454   7.375   4.320   6.574  0.5162 -0.2787  0.5099
19338SOL    HW159455   7.411   4.231   6.582  1.9927  0.1688 -0.6444
19338SOL    HW259456   7.428   4.372   6.635  1.4058  0.2442 -0.6523
19339SOL     OW59457   1.905   7.455   2.723 -0.1861 -0.4040 -0.2356
19339SOL    HW159458   1.923   7.403   2.802  0.7182 -0.3153 -0.3680
19339SOL    HW259459   1.920   7.395   2.651 -1.7318 -0.6922 -0.3431
19340SOL     OW59460   6.046   6.422  11.022  0.4007 -0.6025  0.0056
19340SOL    HW159461   6.042   6.492  10.957  0.0434  0.1375  0.8177
19340SOL    HW259462   5.957   6.386  11.025  0.6538 -1.3313 -0.6416
19341SOL     OW59463   1.892   3.183   8.762  0.3658  0.0582 -0.0989
19341SOL    HW159464   1.948   3.260   8.750 -0.4650  0.6950 -0.0158
19341SOL    HW259465   1.949   3.118   8.802  1.1685  0.5226 -0.4575
19342SOL     OW59466   2.996   4.704   0.245  0.2017 -0.5238 -0.0397
19342SOL    HW159467   3.040   4.621   0.228  0.3287 -0.4186 -0.2315
19342SOL    HW259468   2.993   4.710   0.341 -1.9808 -1.9009  0.0562
19343SOL     OW59469   7.608   3.820   5.495  0.4095 -0.0653 -0.7126
19343SOL    HW159470   7.568   3.831   5.408 -0.2642  1.2469 -0.2592
19343SOL    HW259471   7.604   3.726   5.511 -1.5332 -0.0933 -1.1490
19344SOL     OW59472   0.180   5.142   9.319  0.5994 -0.1065  0.1096
19344SOL    HW159473   0.211   5.131   9.229  0.5743  0.5584  0.0144
19344SOL    HW259474   0.085   5.149   9.311  0.4907 -1.2637  0.3137
19345SOL     OW59475   7.565   6.133   1.381  0.1185 -0.1655  0.1944
19345SOL    HW159476   7.479   6.103   1.412  0.2954 -0.3834  0.4767
19345SOL    HW259477   7.578   6.216   1.427 -0.7006  0.7353 -1.1436
19346SOL     OW59478   3.776   7.060   8.593 -0.2113 -0.2382  0.0889
19346SOL    HW159479   3.735   6.987   8.639  0.6984 -1.3794 -0.8557
19346SOL    HW259480   3.857   7.024   8.557 -0.0223  1.0780 -0.9056
19347SOL     OW59481   4.563   0.468   1.419 -0.3230 -0.1284 -0.2977
19347SOL    HW159482   4.632   0.429   1.365 -1.5793 -3.9462  0.5693
19347SOL    HW259483   4.493   0.489   1.356  0.0686  0.0221 -0.6932
19348SOL     OW59484   4.365   0.051   8.662  0.1413  0.4469  0.1008
19348SOL    HW159485   4.340  -0.010   8.592 -1.4702 -0.5613  1.4698
19348SOL    HW259486   4.458   0.069   8.646  0.3471 -1.3802 -1.0934
19349SOL     OW59487   3.203   0.615   4.982  0.3098  0.1777 -0.3313
19349SOL    HW159488   3.265   0.612   4.909  0.6057 -0.0361 -0.0719
19349SOL    HW259489   3.204   0.527   5.018  0.0641  0.2489 -0.1520
19350SOL     OW59490   7.490   7.768   9.194 -0.6349 -0.2931  0.0723
19350SOL    HW159491   7.466   7.787   9.285 -2.3473  0.4842 -0.5000
19350SOL    HW259492   7.407   7.772   9.146  0.2067 -0.8788 -1.5086
19351SOL     OW59493   2.471   2.846   2.968 -0.4304 -0.5236  0.2315
19351SOL    HW159494   2.518   2.871   2.889 -0.6809 -1.2074 -0.1479
19351SOL    HW259495   2.381   2.830   2.939 -1.2737  2.0659  1.1803
19352SOL     OW59496   3.479   4.293  11.222  0.0911  0.2931  0.1238
19352SOL    HW159497   3.453   4.240  11.297  0.6880 -1.3662 -0.7716
19352SOL    HW259498   3.570   4.317  11.239  0.5511 -0.9290 -0.4774
19353SOL     OW59499   1.159   4.047   1.249 -0.3044 -0.1131  0.0968
19353SOL    HW159500   1.190   4.137   1.259 -2.2683  0.5301  0.7299
19353SOL    HW259501   1.188   4.022   1.161  1.0547  0.7912  0.2592
19354SOL     OW59502   5.508   6.635   0.135  0.3091 -0.0424  0.6122
19354SOL    HW159503   5.577   6.697   0.111  0.9456 -0.8332  0.3501
19354SOL    HW259504   5.470   6.670   0.216 -0.1971  1.3523 -0.1925
19355SOL     OW59505   2.905   3.134  11.306  0.1577 -0.0434  0.1876
19355SOL    HW159506   2.992   3.169  11.324 -0.2357  0.8149  0.4676
19355SOL    HW259507   2.880   3.088  11.387  0.8505 -1.3914 -0.3298
19356SOL     OW59508   1.659   7.113   1.654  0.3148  0.0183  0.5006
19356SOL    HW159509   1.651   7.084   1.745  0.6156  0.2734  0.6119
19356SOL    HW259510   1.592   7.180   1.644 -0.3911 -0.7161  0.2390
19357SOL     OW59511   2.211   3.740   3.254  0.0974  0.1564 -0.1148
19357SOL    HW159512   2.154   3.665   3.238  0.6593 -0.4053  0.4687
19357SOL    HW259513   2.187   3.803   3.186 -1.6606  0.2047  0.4979
19358SOL     OW59514   6.030   0.196   2.748 -0.1385  0.2562  0.0266
19358SOL    HW159515   6.038   0.175   2.655  1.7158 -2.1019  0.6227
19358SOL    HW259516   5.940   0.174   2.770 -0.2690 -0.2575 -0.9579
19359SOL     OW59517   6.559   1.102   5.863  0.5515 -0.4590  0.2338
19359SOL    HW159518   6.593   1.116   5.774 -0.2856  0.6873  0.0663
19359SOL    HW259519   6.579   1.184   5.909  0.0762 -0.6520  0.7957
19360SOL     OW59520   6.646   7.426   4.270 -0.3374  0.0268  1.2657
19360SOL    HW159521   6.700   7.495   4.230  1.0554 -0.8265  1.5993
19360SOL    HW259522   6.594   7.471   4.336  0.4049  0.7943  1.3423
19361SOL     OW59523   2.466   0.053  12.391 -0.4079  0.9523 -0.6054
19361SOL    HW159524   2.393  -0.003  12.364 -2.0585  2.2827  0.8535
19361SOL    HW259525   2.482   0.109  12.315 -1.2167  0.9210 -0.8116
19362SOL     OW59526   5.756   0.878   4.670  0.1168  0.3272  0.5344
19362SOL    HW159527   5.835   0.925   4.696 -1.3984  2.7379  1.1193
19362SOL    HW259528   5.704   0.943   4.623 -1.8614 -0.9567  0.8253
19363SOL     OW59529   0.291   3.755   4.920 -0.4857 -0.1552  0.0672
19363SOL    HW159530   0.255   3.843   4.926  0.9835  0.4327  0.6379
19363SOL    HW259531   0.262   3.711   5.000 -0.4781  0.0947  0.2065
19364SOL     OW59532   7.503   5.514   5.675  0.2174 -0.2922 -0.2761
19364SOL    HW159533   7.503   5.495   5.581  1.4393 -0.8820 -0.1727
19364SOL    HW259534   7.505   5.428   5.716 -0.7684 -0.0470  0.3122
19365SOL     OW59535   5.984   3.569   5.383  0.0725 -0.5078  0.3242
19365SOL    HW159536   5.948   3.574   5.295 -0.3774  0.6922  0.5494
19365SOL    HW259537   5.922   3.514   5.432 -1.5475  1.5315  0.7079
19366SOL     OW59538   6.031   4.567  11.252 -0.0243 -0.0989  0.4145
19366SOL    HW159539   5.955   4.546  11.307 -0.0892 -0.2655  0.2620
19366SOL    HW259540   6.007   4.535  11.165  0.3408 -0.4129  0.4283
19367SOL     OW59541   3.585   7.115   8.213 -0.0816 -0.5915  0.2386
19367SOL    HW159542   3.642   7.180   8.172 -1.8068  0.0754 -1.2797
19367SOL    HW259543   3.602   7.035   8.164  0.8873 -0.8941  1.0462
19368SOL     OW59544   1.094   1.391   9.930 -0.4496 -0.3260 -0.1531
19368SOL    HW159545   1.028   1.322   9.919 -0.8980  0.1987 -0.8809
19368SOL    HW259546   1.046   1.473   9.918  0.3162  0.0709 -0.6279
19369SOL     OW59547   7.685   0.946  10.825 -0.1064 -0.3338 -0.0918
19369SOL    HW159548   7.674   1.015  10.890  0.8079  0.7672 -1.0646
19369SOL    HW259549   7.623   0.969  10.755 -0.6837 -1.1997  0.1175
19370SOL     OW59550   6.315   2.705   4.101 -0.2376 -0.4219  0.3830
19370SOL    HW159551   6.263   2.689   4.180  0.1090  1.3161  0.9959
19370SOL    HW259552   6.257   2.757   4.045 -0.9569 -2.6845 -1.1222
19371SOL     OW59553   1.973   0.065   0.262 -0.3590  0.1195 -0.6146
19371SOL    HW159554   1.938   0.149   0.234 -0.2373  0.6505  0.7417
19371SOL    HW259555   1.928   0.047   0.345  0.8726 -0.3097 -0.0221
19372SOL     OW59556   2.818   4.291   1.095 -0.1527  0.0598 -0.3531
19372SOL    HW159557   2.755   4.221   1.109 -0.5815  0.4304 -0.4226
19372SOL    HW259558   2.777   4.348   1.031  0.5653 -0.0857 -0.9647
19373SOL     OW59559   7.841   3.451   7.293 -0.2267  0.0595 -0.3745
19373SOL    HW159560   7.926   3.471   7.332 -0.8290  1.1025  0.4470
19373SOL    HW259561   7.823   3.361   7.321 -0.6722  0.7934  1.8849
19374SOL     OW59562   3.331   5.019  10.361  0.4471  0.5281  0.3305
19374SOL    HW159563   3.336   5.067  10.444 -0.2239 -1.8089  1.8529
19374SOL    HW259564   3.242   4.983  10.360  0.4846  0.4042 -1.3671
19375SOL     OW59565   2.266   5.616  10.032  0.1432 -0.5411  0.2795
19375SOL    HW159566   2.269   5.533  10.079 -0.4769 -1.0531 -0.5674
19375SOL    HW259567   2.334   5.610   9.966 -0.4197 -0.6908 -0.2893
19376SOL     OW59568   1.723   3.526   8.812 -0.2968 -0.1576  0.6424
19376SOL    HW159569   1.705   3.512   8.905 -1.3597  0.4832  0.5533
19376SOL    HW259570   1.698   3.444   8.770 -3.0973  0.6409  0.5431
19377SOL     OW59571   4.915   3.766   3.683  0.2395  0.4632 -0.1431
19377SOL    HW159572   4.928   3.857   3.655  1.7672  0.0434 -0.9240
19377SOL    HW259573   4.928   3.769   3.778 -0.1099  1.1146 -0.1060
19378SOL     OW59574   1.104   7.090   3.733 -0.1400 -0.3397  0.3528
19378SOL    HW159575   1.094   7.096   3.638 -0.8117  1.1500  0.4958
19378SOL    HW259576   1.151   7.008   3.747  1.3631  0.1858 -1.3463
19379SOL     OW59577   5.410   5.745  11.643 -0.2162  0.3911 -0.2712
19379SOL    HW159578   5.457   5.755  11.560 -0.2977  2.6250 -0.1119
19379SOL    HW259579   5.328   5.792  11.630 -0.5179  0.2124  0.8667
19380SOL     OW59580   3.510   7.607   2.035  0.4470  0.2072 -0.0594
19380SOL    HW159581   3.578   7.604   1.967 -0.8439  2.3971 -1.5740
19380SOL    HW259582   3.430   7.582   1.989  0.2425 -3.8151  2.0068
19381SOL     OW59583   5.819   2.105   8.466  0.2640  0.0249 -0.2674
19381SOL    HW159584   5.856   2.127   8.552 -0.4308  0.7498 -0.1423
19381SOL    HW259585   5.878   2.146   8.403  1.6014 -1.7046 -0.2268
19382SOL     OW59586   4.469   0.603   2.717  0.4772  0.2229  0.1833
19382SOL    HW159587   4.528   0.529   2.730  0.6139 -0.0255 -1.5937
19382SOL    HW259588   4.426   0.615   2.802  0.1791 -2.1259  0.4284
19383SOL     OW59589   6.463   7.601   1.492 -0.1490 -0.0111 -0.0127
19383SOL    HW159590   6.388   7.643   1.534  0.7647  0.1394  1.5631
19383SOL    HW259591   6.470   7.516   1.535 -0.2721 -0.6160 -1.1657
19384SOL     OW59592   5.476   3.985   1.196 -0.5165 -0.1361  0.6664
19384SOL    HW159593   5.491   3.935   1.116 -0.2638 -0.2293  0.7681
19384SOL    HW259594   5.533   4.061   1.188 -1.5037  0.5708  0.1446
19385SOL     OW59595   1.869   4.725   0.746 -0.2149  0.4245  0.5098
19385SOL    HW159596   1.947   4.675   0.720  0.6003  1.5236  0.7724
19385SOL    HW259597   1.796   4.677   0.706  0.6230 -0.4017 -0.0883
19386SOL     OW59598   1.989   0.651   7.818 -0.2068  0.1394 -0.3967
19386SOL    HW159599   1.912   0.707   7.825 -0.5276 -0.4941  2.6410
19386SOL    HW259600   2.062   0.709   7.841 -0.2815 -0.1213  0.5555
19387SOL     OW59601   4.658   5.123   1.076 -0.0564  0.2704  0.4152
19387SOL    HW159602   4.665   5.140   0.982 -2.8170 -0.4316 -0.0122
19387SOL    HW259603   4.564   5.125   1.094  0.2744 -1.2496  2.8399
19388SOL     OW59604   5.070   4.576   5.971 -0.1816 -0.0048 -0.3096
19388SOL    HW159605   5.123   4.502   5.940 -0.9338 -1.4277  1.6456
19388SOL    HW259606   5.020   4.603   5.894  0.1669 -1.4758 -1.0978
19389SOL     OW59607   1.952   7.324   5.699  0.2935 -0.9009  0.2945
19389SOL    HW159608   1.916   7.278   5.775 -0.2847  1.8110  1.7888
19389SOL    HW259609   1.990   7.404   5.735  1.1525 -0.1216 -2.1520
19390SOL     OW59610   7.055   6.921  11.318 -0.1332 -0.0565  0.2634
19390SOL    HW159611   7.143   6.943  11.349 -0.5288  1.3692  0.4606
19390SOL    HW259612   7.007   6.899  11.398  0.0160 -0.7359  0.1673
19391SOL     OW59613   1.778   1.904  10.108  0.2050  0.5437 -0.7051
19391SOL    HW159614   1.694   1.887  10.150 -0.4929  4.8302  0.0605
19391SOL    HW259615   1.840   1.849  10.156 -1.6676 -0.3349  0.8591
19392SOL     OW59616   5.915   4.482   6.508 -0.4231 -0.4945 -0.5398
19392SOL    HW159617   5.963   4.561   6.481 -0.9568  0.9984  2.4255
19392SOL    HW259618   5.828   4.493   6.468 -1.0263  1.3610  1.0838
19393SOL     OW59619   7.374   2.865  10.096 -0.6200  0.4226  0.2606
19393SOL    HW159620   7.430   2.803  10.050 -1.8283  0.9293 -2.0816
19393SOL    HW259621   7.317   2.811  10.150 -0.1185 -0.3337  0.0449
19394SOL     OW59622   6.239   5.133   5.591 -0.2904 -0.4233  0.2634
19394SOL    HW159623   6.172   5.111   5.527  0.1900  0.4062 -0.5458
19394SOL    HW259624   6.200   5.109   5.676 -1.0923 -1.1370 -0.2929
19395SOL     OW59625   6.869   3.478   3.933  0.4656  0.5516  0.1613
19395SOL    HW159626   6.833   3.550   3.881  2.4375  0.3223 -1.6444
19395SOL    HW259627   6.957   3.465   3.899  0.7688 -1.6470  1.5659
19396SOL     OW59628   0.743   3.888   4.221 -0.3133 -0.2614 -0.9924
19396SOL    HW159629   0.814   3.924   4.168  0.9588 -0.6390  0.3940
19396SOL    HW259630   0.668   3.945   4.202  1.0047  1.7060 -0.6251
19397SOL     OW59631   6.786   0.398  11.900 -0.2026 -0.5264 -0.1358
19397SOL    HW159632   6.855   0.457  11.872 -0.3163 -1.0098 -1.4925
19397SOL    HW259633   6.753   0.437  11.982  1.6169 -0.2821  0.5196
19398SOL     OW59634   4.309   4.351   3.114  0.0547 -0.0991 -0.2783
19398SOL    HW159635   4.257   4.328   3.191 -0.7429  0.8558 -0.5004
19398SOL    HW259636   4.394   4.377   3.150 -0.1520 -0.1172  0.2418
19399SOL     OW59637   2.723   1.241   9.373  0.7819 -0.0859 -0.4800
19399SOL    HW159638   2.702   1.173   9.309 -0.7678 -0.9948  0.9228
19399SOL    HW259639   2.643   1.292   9.381  0.9452  0.0158  0.7069
19400SOL     OW59640   7.262   4.088   9.007  0.4415  0.0857  0.0320
19400SOL    HW159641   7.258   4.171   9.055  0.2023 -0.7698  1.5643
19400SOL    HW259642   7.341   4.095   8.953 -0.1292  1.6948 -0.6530
19401SOL     OW59643   0.955   5.597  11.186 -0.5993  0.3005  0.5397
19401SOL    HW159644   1.027   5.615  11.246 -0.7263  0.4838  0.6379
19401SOL    HW259645   0.997   5.593  11.100 -0.5210  0.7470  0.5563
19402SOL     OW59646   2.000   3.970  10.235  0.6437 -0.1106  0.3720
19402SOL    HW159647   1.953   3.899  10.191  0.8900  1.0702 -1.9560
19402SOL    HW259648   2.091   3.942  10.236  0.5465 -0.4190  0.7214
19403SOL     OW59649   5.438   5.935   3.591  0.2665  0.2595 -0.4639
19403SOL    HW159650   5.530   5.948   3.566  0.2790 -1.0779 -1.2663
19403SOL    HW259651   5.388   5.965   3.515  0.2122 -1.8339 -1.3380
19404SOL     OW59652   5.255   0.871   6.780 -0.5572  0.5819  0.0153
19404SOL    HW159653   5.160   0.868   6.772 -0.5008 -3.7889 -1.9111
19404SOL    HW259654   5.283   0.926   6.706 -1.5270  0.3638 -0.5295
19405SOL     OW59655   5.763   7.152   2.909  0.3767  0.2724  0.0062
19405SOL    HW159656   5.802   7.136   2.822 -0.6122 -0.4636 -0.3255
19405SOL    HW259657   5.797   7.237   2.935  0.5965  0.5653 -1.1676
19406SOL     OW59658   7.692   2.733   4.275  0.4125  0.7880  0.3199
19406SOL    HW159659   7.663   2.700   4.360 -3.0528 -0.0987 -1.0261
19406SOL    HW259660   7.712   2.654   4.224 -2.8542  0.7676 -1.2517
19407SOL     OW59661   4.411   4.025   8.768  0.6565 -0.1747  0.0344
19407SOL    HW159662   4.501   4.015   8.800  0.6034 -1.5644 -0.1561
19407SOL    HW259663   4.399   3.950   8.709 -0.0512  0.9726 -1.3257
19408SOL     OW59664   4.337   4.776   2.195 -0.5636 -0.2460  0.4578
19408SOL    HW159665   4.383   4.759   2.277  1.1764  0.1712 -0.3868
19408SOL    HW259666   4.325   4.871   2.194 -0.7763 -0.2742  0.3391
19409SOL     OW59667   1.571   5.270  11.647  0.3049 -0.2364  0.1103
19409SOL    HW159668   1.570   5.349  11.701 -0.4928 -1.6843  2.4074
19409SOL    HW259669   1.483   5.234  11.658  1.1171 -2.2449  0.4878
19410SOL     OW59670   6.560   1.859   3.569 -0.8496  0.0144  0.3374
19410SOL    HW159671   6.635   1.893   3.518  0.4640 -1.6903  1.0288
19410SOL    HW259672   6.505   1.816   3.504 -0.1591 -0.4923  0.0717
19411SOL     OW59673   0.806   4.367   9.845  0.2111 -0.2225  0.5148
19411SOL    HW159674   0.718   4.386   9.875 -0.7070 -2.3361 -0.6079
19411SOL    HW259675   0.807   4.395   9.753  0.7490 -0.0433  0.5735
19412SOL     OW59676   3.598   3.555   4.760  0.0313 -0.2964 -0.2200
19412SOL    HW159677   3.624   3.548   4.668 -0.2682  0.0542 -0.3320
19412SOL    HW259678   3.547   3.475   4.776 -1.4992  0.5198 -0.8828
19413SOL     OW59679   5.880   7.375   3.004 -0.4913 -0.1150 -0.6031
19413SOL    HW159680   5.812   7.436   3.034 -0.4801 -0.2536 -0.2968
19413SOL    HW259681   5.960   7.405   3.047  0.1510  1.4660 -2.7051
19414SOL     OW59682   1.680   3.392   4.670 -0.7037 -0.0365  0.6709
19414SOL    HW159683   1.733   3.470   4.683 -0.3829 -0.2675  0.7569
19414SOL    HW259684   1.740   3.328   4.630 -0.5412 -0.7616  2.0202
19415SOL     OW59685   5.238   4.109   5.671  0.2597  0.0773 -0.7154
19415SOL    HW159686   5.189   4.186   5.640  1.9764  1.9042  0.8182
19415SOL    HW259687   5.308   4.098   5.607 -0.2764 -0.5847 -1.2108
19416SOL     OW59688   2.475   0.144   7.771 -0.4747 -0.5206 -0.1852
19416SOL    HW159689   2.553   0.183   7.811 -0.5096 -0.8020  0.1588
19416SOL    HW259690   2.463   0.194   7.690  1.3058 -1.8630 -1.3421
19417SOL     OW59691   7.897   2.809   8.020  0.2309  0.0557 -0.4255
19417SOL    HW159692   7.911   2.839   7.930 -0.5548 -0.2072 -0.6401
19417SOL    HW259693   7.889   2.714   8.012 -0.7393  0.1177 -0.1931
19418SOL     OW59694   7.219   6.467   3.015 -0.2411 -0.9632 -0.8611
19418SOL    HW159695   7.230   6.375   3.040 -2.4896 -0.4267  2.8003
19418SOL    HW259696   7.276   6.516   3.074 -0.2022  0.1018 -1.7352
19419SOL     OW59697   1.951   1.419   0.261 -0.3269  0.1582  0.7723
19419SOL    HW159698   2.008   1.438   0.187 -0.3359 -0.6851  0.5382
19419SOL    HW259699   1.976   1.331   0.289 -1.5818 -0.2808  0.5946
19420SOL     OW59700   6.939   3.029   3.612 -0.2959  0.1255  0.6345
19420SOL    HW159701   6.955   3.112   3.568  2.5611 -1.2059 -1.1306
19420SOL    HW259702   7.018   3.014   3.665 -0.8883 -1.2963  1.1635
19421SOL     OW59703   7.430   4.993   9.049 -0.5636 -0.3582  0.5595
19421SOL    HW159704   7.369   4.978   9.121 -1.5903  1.2538  0.0908
19421SOL    HW259705   7.515   5.002   9.091 -0.9119 -0.9424  1.4065
19422SOL     OW59706   6.381   3.465  12.294 -0.5716  0.1577 -0.2768
19422SOL    HW159707   6.374   3.512  12.211  0.0133 -0.9322 -0.9550
19422SOL    HW259708   6.301   3.488  12.341 -1.3810  0.0174 -1.5383
19423SOL     OW59709   0.969   4.408   4.957  0.1544 -0.4878  0.3057
19423SOL    HW159710   0.921   4.330   4.984  0.2827 -0.3864  0.8346
19423SOL    HW259711   0.985   4.395   4.864 -0.6473 -0.6556  0.1804
19424SOL     OW59712   4.967   3.221  12.403 -0.2871  0.0448 -0.3046
19424SOL    HW159713   4.881   3.260  12.421 -0.0418  0.4135  0.1121
19424SOL    HW259714   4.954   3.127  12.415 -0.5920  0.1165 -0.0533
19425SOL     OW59715   0.611   2.433   9.509 -0.2387 -0.2023 -0.2425
19425SOL    HW159716   0.581   2.476   9.589 -1.0852 -1.1884 -0.0091
19425SOL    HW259717   0.603   2.500   9.441 -0.4871  0.3356  0.3096
19426SOL     OW59718   6.157   1.806   1.977 -0.0361 -0.5748 -0.6201
19426SOL    HW159719   6.230   1.774   1.924 -0.7119 -2.0173 -0.7142
19426SOL    HW259720   6.081   1.760   1.943 -1.0127  0.9014 -0.5185
19427SOL     OW59721   1.196   0.858   2.555 -0.0645  0.0398  0.1188
19427SOL    HW159722   1.214   0.764   2.553  0.5832  0.1246  1.1475
19427SOL    HW259723   1.242   0.892   2.479  0.9338 -0.2961  0.5476
19428SOL     OW59724   5.429   2.559  11.107  0.0760  0.0803  0.1523
19428SOL    HW159725   5.512   2.607  11.109  1.3515 -2.0064  0.4409
19428SOL    HW259726   5.451   2.475  11.067 -1.9366 -0.5098  0.1716
19429SOL     OW59727   7.748   3.578   9.248  0.1951  0.0149 -0.0212
19429SOL    HW159728   7.811   3.518   9.206 -0.4959  0.2214 -1.4338
19429SOL    HW259729   7.691   3.606   9.176 -1.5103 -0.1610  1.2086
19430SOL     OW59730   0.379   5.881   5.457 -0.0517 -0.7376 -0.6333
19430SOL    HW159731   0.414   5.818   5.395 -2.6583 -1.9981 -0.9647
19430SOL    HW259732   0.396   5.843   5.543  0.5678 -0.6529 -0.7148
19431SOL     OW59733   6.053   4.583   4.399  0.6076 -0.2795  0.4784
19431SOL    HW159734   6.051   4.531   4.318 -0.8660  1.7614 -0.9041
19431SOL    HW259735   5.987   4.542   4.456  1.2397 -1.3840  0.4355
19432SOL     OW59736   2.013   1.727  10.141 -0.2653 -0.2453 -0.1834
19432SOL    HW159737   2.007   1.805  10.197 -2.0839 -2.5091  3.0947
19432SOL    HW259738   2.092   1.682  10.170 -0.1240 -0.4683 -0.8932
19433SOL     OW59739   6.555   7.414   5.684  0.2426  0.1427 -0.0821
19433SOL    HW159740   6.627   7.361   5.718  0.8314  0.5072 -0.7457
19433SOL    HW259741   6.526   7.466   5.759  1.0712  0.4365  0.0339
19434SOL     OW59742   7.581   7.269   5.726 -0.5075  0.1888 -0.1032
19434SOL    HW159743   7.591   7.252   5.633 -3.1465 -0.2420 -0.3894
19434SOL    HW259744   7.622   7.193   5.768 -0.9817 -0.5733 -0.9816
19435SOL     OW59745   3.292   7.314   6.951 -0.8960  0.2845  0.0877
19435SOL    HW159746   3.212   7.265   6.971  0.0483 -1.3680 -0.0242
19435SOL    HW259747   3.270   7.365   6.873 -2.1335  0.6348  0.6423
19436SOL     OW59748   0.526   1.219   7.196 -0.2016  0.1896 -0.1725
19436SOL    HW159749   0.559   1.281   7.130  1.7987  1.8616  2.2081
19436SOL    HW259750   0.431   1.222   7.186  0.0020  1.0686 -2.3529
19437SOL     OW59751   0.236   3.283   1.025 -0.3106  0.2405 -0.7791
19437SOL    HW159752   0.326   3.284   1.058 -0.0187  0.4608 -1.5595
19437SOL    HW259753   0.208   3.192   1.033  0.1094  0.1012 -0.8814
19438SOL     OW59754   1.388   6.762   8.667 -0.2449 -0.3987  0.0030
19438SOL    HW159755   1.460   6.702   8.689  0.4659  0.8111  1.1496
19438SOL    HW259756   1.341   6.773   8.750  0.7045  1.9847  0.2843
19439SOL     OW59757   3.996   3.002  10.593 -0.8126  0.1894 -0.6952
19439SOL    HW159758   4.028   3.092  10.586  1.5251 -0.6091 -0.9688
19439SOL    HW259759   3.989   2.972  10.502  0.9937 -0.7112 -0.5765
19440SOL     OW59760   3.723   2.624   7.308 -0.2730 -0.4216  0.0229
19440SOL    HW159761   3.719   2.669   7.393 -0.2375  0.0995 -0.2515
19440SOL    HW259762   3.742   2.533   7.331 -0.8619 -0.4082  0.6132
19441SOL     OW59763   6.261   5.600   8.023 -0.8051  0.1549  0.2424
19441SOL    HW159764   6.299   5.658   7.957 -1.2178  0.7889  0.5454
19441SOL    HW259765   6.204   5.541   7.974  1.3934 -1.5941 -0.3765
19442SOL     OW59766   3.612   6.874   8.095 -0.3673 -0.2069  0.1805
19442SOL    HW159767   3.517   6.867   8.081 -0.3319 -0.1251 -0.1115
19442SOL    HW259768   3.649   6.873   8.007 -0.0902 -0.3176  0.2972
19443SOL     OW59769   2.291   0.452   0.395 -0.1147  0.3715 -0.0802
19443SOL    HW159770   2.234   0.392   0.443  1.1066  0.2378  1.2854
19443SOL    HW259771   2.256   0.452   0.306 -1.4517 -0.6798  0.4042
19444SOL     OW59772   4.911   6.321   8.457  0.1568 -0.5049  0.0241
19444SOL    HW159773   4.981   6.351   8.399  0.7831  0.5541  1.2706
19444SOL    HW259774   4.930   6.363   8.541 -1.1620 -1.3663  0.7874
19445SOL     OW59775   2.683   7.137   5.880 -0.1010  0.2337  0.2675
19445SOL    HW159776   2.668   7.162   5.789  0.3645  0.0310  0.1351
19445SOL    HW259777   2.745   7.203   5.913  0.2965 -0.1182  0.2266
19446SOL     OW59778   4.474   7.786  11.558  0.8872 -0.3530 -0.2445
19446SOL    HW159779   4.519   7.770  11.475  0.5677 -0.6866 -0.3558
19446SOL    HW259780   4.490   7.878  11.576  1.6179 -0.4634 -0.2839
19447SOL     OW59781   4.348   0.730   8.932  0.3695  0.2116 -0.1514
19447SOL    HW159782   4.417   0.670   8.904  1.7430  1.4874  0.4178
19447SOL    HW259783   4.267   0.689   8.901  1.4118 -1.0124 -1.3662
19448SOL     OW59784   0.802   5.763   7.333  0.5162  0.0716 -0.1640
19448SOL    HW159785   0.816   5.771   7.427  0.2149 -2.4130  0.1530
19448SOL    HW259786   0.856   5.832   7.295 -0.8884  2.4577  1.8637
19449SOL     OW59787   3.105   7.736   3.239  0.8598 -0.6522 -0.0500
19449SOL    HW159788   3.184   7.684   3.227  0.6364 -0.6762 -1.6463
19449SOL    HW259789   3.040   7.694   3.183 -0.7779 -1.5338  2.3520
19450SOL     OW59790   2.568   7.813   4.503 -0.2704  0.3162  0.3512
19450SOL    HW159791   2.638   7.760   4.541  0.3465 -0.3391 -1.5787
19450SOL    HW259792   2.583   7.901   4.537  3.7401  1.0659 -2.5797
19451SOL     OW59793   4.889   0.938   3.566  0.8433 -0.3205 -0.0242
19451SOL    HW159794   4.950   0.946   3.492  0.7987  2.1029  0.1307
19451SOL    HW259795   4.870   1.028   3.591 -1.0089 -1.0668  1.4454
19452SOL     OW59796   6.499   0.972   3.699 -0.7947  1.1046  0.5633
19452SOL    HW159797   6.453   0.889   3.690  3.1065 -1.2422  0.4101
19452SOL    HW259798   6.561   0.959   3.771  0.3249  3.7307  0.2191
19453SOL     OW59799   1.862   6.982   2.482  0.2113  0.0284 -0.2013
19453SOL    HW159800   1.936   6.992   2.422 -0.5079 -0.5815 -1.2416
19453SOL    HW259801   1.842   6.888   2.479  0.6938 -0.1594  1.6895
19454SOL     OW59802   6.750   4.120   9.185 -1.0123 -0.0960  0.5561
19454SOL    HW159803   6.726   4.184   9.251 -2.1294 -0.7229  0.7711
19454SOL    HW259804   6.827   4.076   9.221 -2.3923 -1.3818  2.1278
19455SOL     OW59805   1.135   5.375  11.843 -0.2647 -0.0745  0.1989
19455SOL    HW159806   1.217   5.332  11.868  0.1483  0.6451  0.1050
19455SOL    HW259807   1.070   5.304  11.840  0.5142 -0.7769 -0.4600
19456SOL     OW59808   2.651   6.331   1.474 -0.0176 -0.1476  0.4356
19456SOL    HW159809   2.583   6.378   1.426 -0.4386 -3.2712 -2.4013
19456SOL    HW259810   2.603   6.272   1.532  0.1904 -1.4170 -0.6179
19457SOL     OW59811   5.500   4.280   8.697  0.0266  0.2221  0.1804
19457SOL    HW159812   5.456   4.281   8.782 -2.0013  0.4754 -0.8068
19457SOL    HW259813   5.475   4.196   8.658  0.5185  0.3273 -0.3802
19458SOL     OW59814   4.509   6.108   8.018  0.0902  0.6006  0.2678
19458SOL    HW159815   4.451   6.182   8.040 -0.1977 -0.0492  1.8402
19458SOL    HW259816   4.475   6.035   8.070  0.3638 -0.6618 -1.2688
19459SOL     OW59817   3.154   1.082  12.089  0.3542  0.1387  0.0759
19459SOL    HW159818   3.150   0.997  12.133 -1.3269  0.7830  1.2968
19459SOL    HW259819   3.148   1.062  11.996  0.0413 -1.0704  0.3411
19460SOL     OW59820   5.139   2.881  10.628  0.0936  0.1167  0.8618
19460SOL    HW159821   5.156   2.890  10.534 -1.3476 -0.3856  0.5228
19460SOL    HW259822   5.223   2.852  10.664  0.5507 -0.1371 -0.3343
19461SOL     OW59823   1.225   6.693   1.899 -0.0013  0.1808 -0.1727
19461SOL    HW159824   1.236   6.681   1.804  0.9875 -0.4546  0.0133
19461SOL    HW259825   1.163   6.625   1.925  1.8022 -1.4579  0.0572
19462SOL     OW59826   5.437   2.917   3.025 -0.1306  0.0988 -0.3895
19462SOL    HW159827   5.506   2.931   2.960  0.4961 -0.2427  0.1845
19462SOL    HW259828   5.482   2.876   3.099 -1.0524 -0.6333 -0.2131
19463SOL     OW59829   1.020   2.470   1.265  0.1398  0.7139  0.2940
19463SOL    HW159830   1.003   2.405   1.197  0.7705 -1.9443  2.5016
19463SOL    HW259831   0.954   2.453   1.332  2.9227 -0.7430  2.8984
19464SOL     OW59832   4.383   2.558   1.133 -0.0541 -0.0957 -0.7787
19464SOL    HW159833   4.474   2.586   1.139  0.3676 -1.1158 -2.0948
19464SOL    HW259834   4.367   2.545   1.040 -1.7181  0.5737 -0.6231
19465SOL     OW59835   6.922   7.628   0.644 -0.8583 -0.4865  0.1873
19465SOL    HW159836   6.950   7.540   0.669 -0.3983 -0.2159  0.6349
19465SOL    HW259837   6.830   7.618   0.617 -0.9621 -1.0091  0.7288
19466SOL     OW59838   4.685   2.504   7.015 -0.5359  0.4870  0.5343
19466SOL    HW159839   4.709   2.441   7.083  0.5366 -0.0593 -0.3116
19466SOL    HW259840   4.592   2.489   7.001 -0.4882 -0.3060  0.9734
19467SOL     OW59841   6.928   5.972   2.770  0.4922 -0.4782  0.1691
19467SOL    HW159842   6.870   6.042   2.740  1.3544  0.9025  1.5108
19467SOL    HW259843   6.943   5.918   2.693 -1.1035  0.1733 -0.6431
19468SOL     OW59844   0.560   0.947   4.070  0.6221  0.4405 -0.2090
19468SOL    HW159845   0.466   0.959   4.080  0.4416 -0.4062 -0.7453
19468SOL    HW259846   0.584   1.001   3.995  0.6155  0.8746  0.1008
19469SOL     OW59847   4.138   2.853  11.989  0.2866 -0.0526  0.1585
19469SOL    HW159848   4.094   2.768  11.984  1.5167 -0.6493 -0.9430
19469SOL    HW259849   4.137   2.875  12.082 -1.4667 -0.4886  0.2754
19470SOL     OW59850   5.201   4.268   4.568 -0.4080  0.0813  0.2256
19470SOL    HW159851   5.136   4.294   4.503 -0.9100 -0.9502  0.3063
19470SOL    HW259852   5.284   4.296   4.530 -0.8787  1.5549  0.1876
19471SOL     OW59853   6.590   4.795  10.692  0.5507 -0.2168  0.0219
19471SOL    HW159854   6.495   4.788  10.706  0.3392 -1.2714 -1.6064
19471SOL    HW259855   6.609   4.889  10.700 -0.5053 -0.0721  1.0346
19472SOL     OW59856   1.521   3.799   0.260 -0.2710  0.1175 -0.2144
19472SOL    HW159857   1.430   3.780   0.238 -0.2510 -0.7640  0.4184
19472SOL    HW259858   1.517   3.860   0.333 -0.4011 -1.3980  1.1040
19473SOL     OW59859   3.285   7.106   2.932 -0.5133  0.6133 -0.4175
19473SOL    HW159860   3.318   7.061   2.854  1.5694 -0.6979  1.1122
19473SOL    HW259861   3.273   7.036   2.996  0.5143  1.9220  1.3014
19474SOL     OW59862   7.817   0.144   7.399 -0.3397  0.3971  0.8834
19474SOL    HW159863   7.802   0.058   7.361  0.1660  0.2661  0.9750
19474SOL    HW259864   7.740   0.195   7.375 -1.1272 -0.3805  1.6943
19475SOL     OW59865   7.664   4.288   0.300  0.5496  0.1763 -0.4467
19475SOL    HW159866   7.694   4.220   0.360  0.4657 -0.9557 -1.6488
19475SOL    HW259867   7.676   4.251   0.212  1.3627  2.0474 -1.2056
19476SOL     OW59868   0.275   1.244   1.807  0.4487 -0.5320 -0.1560
19476SOL    HW159869   0.185   1.260   1.779  0.7064  0.6651 -0.3374
19476SOL    HW259870   0.329   1.272   1.733  1.0484  0.6242  0.6915
19477SOL     OW59871   7.146   1.128   1.352 -0.1759 -0.2624 -0.0763
19477SOL    HW159872   7.056   1.102   1.335  0.1986 -2.7809  1.2546
19477SOL    HW259873   7.196   1.095   1.277 -0.0613 -1.2554  0.4074
19478SOL     OW59874   7.112   4.347   6.905  0.3446 -0.0558 -0.2324
19478SOL    HW159875   7.154   4.380   6.825  0.3547  0.7361  0.0877
19478SOL    HW259876   7.183   4.344   6.969  0.3906 -0.9287 -0.3084
19479SOL     OW59877   1.069   5.817   4.162 -0.1044  0.1981  0.6869
19479SOL    HW159878   1.072   5.823   4.258 -0.0328  3.4132  0.5952
19479SOL    HW259879   1.017   5.893   4.135  1.3247  0.3824 -1.8630
19480SOL     OW59880   5.160   3.760   2.382 -0.2991  0.4000 -0.2380
19480SOL    HW159881   5.114   3.697   2.439  0.6813 -1.0072 -0.9294
19480SOL    HW259882   5.178   3.835   2.439  0.1864 -0.7446  1.1893
19481SOL     OW59883   7.577   5.028   3.137  0.1577 -0.1527  0.3913
19481SOL    HW159884   7.592   5.080   3.216 -1.9554  2.4037 -0.7490
19481SOL    HW259885   7.482   5.032   3.123  0.3976 -1.1129 -1.9009
19482SOL     OW59886   0.178   7.032   2.262  0.1036 -0.3189  0.1000
19482SOL    HW159887   0.172   6.957   2.322 -0.0101 -0.5871 -0.2439
19482SOL    HW259888   0.121   7.009   2.189  0.5407 -0.1688 -0.2956
19483SOL     OW59889   0.473   5.636  11.386  0.3383  0.0194  0.5246
19483SOL    HW159890   0.516   5.590  11.457  1.8570  0.8277  0.1787
19483SOL    HW259891   0.540   5.696  11.352 -0.9208  0.9830 -0.3681
19484SOL     OW59892   3.706   6.131   2.127 -0.0976  0.3222  0.3857
19484SOL    HW159893   3.797   6.141   2.152  0.6237 -1.2526 -1.4123
19484SOL    HW259894   3.678   6.049   2.167 -1.0282  1.1820  1.6003
19485SOL     OW59895   3.311   6.491  10.594  0.3625 -0.5677  0.5658
19485SOL    HW159896   3.316   6.402  10.628 -2.9525 -0.2601  2.2066
19485SOL    HW259897   3.403   6.517  10.583  1.5401 -2.9439  3.3871
19486SOL     OW59898   3.007   0.394  12.403  0.1663  0.2313 -0.0633
19486SOL    HW159899   3.003   0.445  12.484  2.3942 -1.1449  1.0328
19486SOL    HW259900   3.011   0.303  12.433 -1.5562 -0.4933 -1.8613
19487SOL     OW59901   1.796   3.853   8.359 -0.0782 -0.3077  0.3849
19487SOL    HW159902   1.837   3.768   8.341 -1.1286 -0.9929  1.0585
19487SOL    HW259903   1.822   3.909   8.285  2.4348 -0.5210  1.0273
19488SOL     OW59904   2.589   4.951   9.143 -0.5424 -0.3174  0.2012
19488SOL    HW159905   2.622   4.997   9.220  0.7882  1.0912 -1.1088
19488SOL    HW259906   2.558   5.022   9.086 -0.7260 -1.2515 -0.8844
19489SOL     OW59907   1.023   7.535   7.493 -0.0757  0.4771 -0.1542
19489SOL    HW159908   1.045   7.587   7.416  1.4132 -0.6536 -0.5236
19489SOL    HW259909   0.981   7.457   7.458  0.7490 -0.1154  0.1604
19490SOL     OW59910   6.577   6.349   2.561 -0.3915  0.1327 -0.2090
19490SOL    HW159911   6.582   6.365   2.467  0.5430  0.9245 -0.0446
19490SOL    HW259912   6.516   6.276   2.570  0.1885 -0.5365 -1.4831
19491SOL     OW59913   4.205   7.338   0.286  0.3914 -0.0453 -0.5759
19491SOL    HW159914   4.201   7.262   0.228 -1.8717  0.6607 -1.4583
19491SOL    HW259915   4.114   7.353   0.313  1.0302  1.2905  1.0022
19492SOL     OW59916   6.193   2.809   1.505 -0.6208 -0.2065  0.0734
19492SOL    HW159917   6.180   2.898   1.537  0.3427  0.6918 -1.8699
19492SOL    HW259918   6.129   2.800   1.434  1.7231  0.3590 -2.2567
19493SOL     OW59919   4.841   6.031  11.235 -0.0414  0.4103 -0.5593
19493SOL    HW159920   4.819   6.091  11.163  0.3574 -1.1417 -2.0247
19493SOL    HW259921   4.936   6.028  11.236 -0.0651 -0.6735 -0.9177
19494SOL     OW59922   2.675   5.490   6.714 -0.3671  0.2387  0.0989
19494SOL    HW159923   2.741   5.544   6.671 -0.9320  0.7247 -0.1713
19494SOL    HW259924   2.592   5.533   6.694 -0.8199 -0.6890 -0.0588
19495SOL     OW59925   6.161   1.259   6.035  0.1142  0.4503 -0.2575
19495SOL    HW159926   6.166   1.253   5.939 -0.3471 -1.2263 -0.2019
19495SOL    HW259927   6.220   1.190   6.066  0.9979  1.6009  0.6994
19496SOL     OW59928   7.636   0.154   8.343  1.3055  0.2216 -0.2513
19496SOL    HW159929   7.680   0.180   8.424  0.1827  1.9641 -0.1404
19496SOL    HW259930   7.590   0.233   8.315  0.1199 -0.8868 -1.5830
19497SOL     OW59931   7.897   4.855   1.111 -0.1110 -0.1477 -0.0810
19497SOL    HW159932   7.916   4.859   1.205 -0.4302  1.6143 -0.0525
19497SOL    HW259933   7.921   4.766   1.086 -1.2366 -1.0839  1.9186
19498SOL     OW59934   1.435   0.044   7.367 -0.1511 -0.0854  0.5607
19498SOL    HW159935   1.404  -0.015   7.436 -0.6861 -0.4240  0.0415
19498SOL    HW259936   1.419  -0.004   7.286  1.6939 -0.2701  0.2409
19499SOL     OW59937   3.892   6.593   9.522 -0.3398  0.0628 -0.2936
19499SOL    HW159938   3.903   6.686   9.541 -1.8254  0.2970 -0.4862
19499SOL    HW259939   3.810   6.588   9.474 -0.7081 -1.4420  0.4418
19500SOL     OW59940   5.371   7.065   8.112 -0.7766  0.1604 -0.0283
19500SOL    HW159941   5.413   7.132   8.057  1.1424  1.9713  3.3106
19500SOL    HW259942   5.443   7.025   8.160 -2.3406 -1.1885  1.3090
19501SOL     OW59943   4.021   2.343   6.234  0.1187 -0.0322 -0.2487
19501SOL    HW159944   4.031   2.437   6.250 -3.2787  0.3361  0.4302
19501SOL    HW259945   4.038   2.333   6.140  4.5268  0.4481  0.2964
19502SOL     OW59946   1.469   2.616  10.228 -0.7742 -0.2375 -0.2827
19502SOL    HW159947   1.384   2.573  10.236 -1.7530  1.0231 -2.6695
19502SOL    HW259948   1.497   2.597  10.138 -0.1745  2.1071 -0.6628
19503SOL     OW59949   5.991   5.981   7.323 -0.0476 -0.3165  0.0640
19503SOL    HW159950   5.992   5.907   7.262  1.2941 -1.1966  1.0997
19503SOL    HW259951   6.084   6.000   7.339 -0.3765  0.7466  0.8293
19504SOL     OW59952   2.094   7.660  11.687  0.7407 -0.1978 -0.3641
19504SOL    HW159953   2.029   7.682  11.753  0.6883 -1.2319 -0.0630
19504SOL    HW259954   2.134   7.579  11.718 -0.8160 -1.9776 -2.6636
19505SOL     OW59955   0.157   1.551   5.350  0.2479 -0.1212  0.2752
19505SOL    HW159956   0.071   1.559   5.310  0.1176  1.0568  0.7232
19505SOL    HW259957   0.167   1.459   5.371 -0.6617 -0.3550 -0.3000
19506SOL     OW59958   3.282   3.035   8.491  0.0320 -0.2003  0.0923
19506SOL    HW159959   3.293   3.015   8.584 -1.0717  1.8519  0.7183
19506SOL    HW259960   3.358   3.087   8.469 -0.3626  0.4331  0.2076
19507SOL     OW59961   3.455   1.551  11.621 -0.1854 -0.1096 -0.1289
19507SOL    HW159962   3.476   1.469  11.577  0.0328 -0.2476  0.2277
19507SOL    HW259963   3.431   1.525  11.710  2.3789  0.4027  0.7837
19508SOL     OW59964   2.067   7.980   1.020 -0.2265  0.2202  0.2361
19508SOL    HW159965   2.016   8.004   0.943 -0.2269 -1.3078 -0.2701
19508SOL    HW259966   2.125   7.910   0.990  0.6187  0.4217  1.3382
19509SOL     OW59967   4.459   1.116   5.922  0.2579 -0.4067  0.1219
19509SOL    HW159968   4.516   1.098   5.997 -0.3268  1.3324  1.0613
19509SOL    HW259969   4.518   1.123   5.847  1.1369 -0.0115  0.8333
19510SOL     OW59970   4.000   4.155   1.202 -0.4880  0.4502  0.3306
19510SOL    HW159971   4.095   4.149   1.192 -0.6947  0.3398 -2.2233
19510SOL    HW259972   3.983   4.249   1.210 -0.1988  0.5313  0.0450
19511SOL     OW59973   3.046   6.188   9.174  0.4759 -0.7713  0.3590
19511SOL    HW159974   3.125   6.238   9.157 -0.5572  1.2321  1.1458
19511SOL    HW259975   3.055   6.160   9.265  0.1787 -0.3134  0.5325
19512SOL     OW59976   0.070   1.617  10.150 -0.4026 -0.1031 -0.5145
19512SOL    HW159977   0.011   1.546  10.125 -0.0705 -0.7100  0.3687
19512SOL    HW259978   0.078   1.670  10.071 -1.3193 -0.5771 -0.9435
19513SOL     OW59979   6.755   1.955  11.426  0.1528 -0.0324 -0.4222
19513SOL    HW159980   6.841   1.988  11.399  0.1368  1.7259  1.4205
19513SOL    HW259981   6.751   1.974  11.520 -1.3675 -2.1628  0.0063
19514SOL     OW59982   0.144   7.608   2.744 -0.0443 -0.5809  0.6941
19514SOL    HW159983   0.122   7.583   2.834 -1.4890 -0.3663  0.4221
19514SOL    HW259984   0.205   7.681   2.754  1.0566 -1.5620  1.4803
19515SOL     OW59985   7.628   1.182  11.380  0.1205 -0.1186 -0.4185
19515SOL    HW159986   7.719   1.212  11.370  0.3068 -0.0026  1.2306
19515SOL    HW259987   7.603   1.214  11.467 -0.4277 -2.8347  0.5191
19516SOL     OW59988   4.317   4.635   5.571 -0.1512  0.3569 -0.2736
19516SOL    HW159989   4.391   4.681   5.533  0.8487 -0.2913  0.8140
19516SOL    HW259990   4.293   4.686   5.648 -1.2462  0.8826 -0.9286
19517SOL     OW59991   3.582   3.669   4.256  0.1762 -0.1852 -0.8685
19517SOL    HW159992   3.659   3.615   4.272 -1.4436 -1.7003  3.8184
19517SOL    HW259993   3.532   3.621   4.190  0.6926 -2.3180  0.2015
19518SOL     OW59994   0.667   1.927   7.819 -0.0959 -0.4349 -0.0410
19518SOL    HW159995   0.649   1.889   7.905  0.4569 -0.3824  0.1040
19518SOL    HW259996   0.751   1.972   7.829 -0.1357 -0.2300 -0.5471
19519SOL     OW59997   7.445   2.430   5.214  0.7012  0.2322  0.0149
19519SOL    HW159998   7.353   2.438   5.239  1.1922  0.5042  1.8856
19519SOL    HW259999   7.469   2.340   5.237  0.7818 -0.0047 -0.9551
19520SOL     OW60000   3.463   7.584   2.568  0.2159 -0.7691 -0.5744
19520SOL    HW160001   3.392   7.647   2.557  1.4816  1.0211  0.9716
19520SOL    HW260002   3.493   7.566   2.479 -0.8987 -0.0629 -1.1136
19521SOL     OW60003   2.727   5.727   4.513 -0.2133 -0.2870 -0.7014
19521SOL    HW160004   2.661   5.658   4.510 -0.2393 -0.2835 -0.3121
19521SOL    HW260005   2.775   5.710   4.595  1.0537 -1.0064 -1.5555
19522SOL     OW60006   1.842   4.530   4.941 -0.1113  0.2696  0.3930
19522SOL    HW160007   1.904   4.551   4.871 -0.4052  0.2491  0.1219
19522SOL    HW260008   1.770   4.485   4.896 -2.7118  4.4333 -0.2169
19523SOL     OW60009   6.538   2.357   4.712  0.1090  0.4869 -0.0040
19523SOL    HW160010   6.460   2.302   4.705 -0.3891  1.3095 -1.5127
19523SOL    HW260011   6.542   2.383   4.804 -0.9106 -0.2431  0.2625
19524SOL     OW60012   7.184   0.212   2.769  0.6281  0.0985 -0.6895
19524SOL    HW160013   7.161   0.305   2.768  0.2077  0.0415  1.0091
19524SOL    HW260014   7.132   0.174   2.699  1.2908  1.2215 -1.8604
19525SOL     OW60015   5.446   7.009   4.093  0.3044 -0.1896  0.1335
19525SOL    HW160016   5.497   6.948   4.146  3.0063 -0.0505 -2.0550
19525SOL    HW260017   5.480   7.095   4.116 -1.4725  0.2912  1.1293
19526SOL     OW60018   1.416   4.725   1.218 -0.1991  0.2646  0.2927
19526SOL    HW160019   1.470   4.700   1.144  0.4286  0.2324  0.7548
19526SOL    HW260020   1.407   4.820   1.210  0.9872  0.4479  0.9010
19527SOL     OW60021   0.096   7.411   9.289  0.2775  0.4290 -0.4173
19527SOL    HW160022   0.069   7.343   9.228 -0.6837  0.7895 -0.4214
19527SOL    HW260023   0.032   7.481   9.276  0.1667  0.5884  0.8605
19528SOL     OW60024   6.000   0.319   7.597 -0.4861 -0.8486 -0.2821
19528SOL    HW160025   5.922   0.355   7.554 -0.4517 -0.6314 -0.1636
19528SOL    HW260026   5.965   0.266   7.668 -0.6805 -3.2965 -2.0507
19529SOL     OW60027   0.825   4.011  10.900  0.4808 -0.4172 -0.1864
19529SOL    HW160028   0.876   4.086  10.870 -1.0472 -0.1600 -2.3352
19529SOL    HW260029   0.801   3.965  10.820  0.2770 -2.5122  0.9983
19530SOL     OW60030   5.849   6.845  10.356  0.1303 -0.3035  0.0200
19530SOL    HW160031   5.758   6.868  10.338 -0.1616 -2.6187 -1.8960
19530SOL    HW260032   5.891   6.841  10.270  1.6497 -0.8359  0.7413
19531SOL     OW60033   4.790   2.965   1.568  0.6572  0.1715 -0.1984
19531SOL    HW160034   4.883   2.983   1.583  0.2146  0.7129  2.2033
19531SOL    HW260035   4.744   3.033   1.616 -0.9948 -1.0646  0.0454
19532SOL     OW60036   1.024   7.211   5.298 -0.2533  0.0906  0.8299
19532SOL    HW160037   1.085   7.270   5.254  0.8661  0.3296  2.5690
19532SOL    HW260038   0.953   7.198   5.236 -0.1067  2.5749  0.0356
19533SOL     OW60039   0.556   0.589   6.969  0.2355  0.1862  0.1835
19533SOL    HW160040   0.566   0.562   6.878 -0.5363  0.3419  0.0421
19533SOL    HW260041   0.503   0.669   6.964  0.2568  0.2360  0.7575
19534SOL     OW60042   3.937   5.419   5.686 -0.0778  0.0922  0.4337
19534SOL    HW160043   3.946   5.339   5.737 -0.9268 -0.4503 -0.2387
19534SOL    HW260044   4.017   5.423   5.633 -0.6987 -1.1539 -0.6658
19535SOL     OW60045   2.815   5.863   9.078 -0.1095 -0.0326 -0.3436
19535SOL    HW160046   2.782   5.933   9.021  2.2552  0.4111 -1.3138
19535SOL    HW260047   2.794   5.783   9.031  1.7354  0.3259 -1.9131
19536SOL     OW60048   0.665   5.856   9.429  0.0505 -0.2886 -0.2209
19536SOL    HW160049   0.674   5.779   9.373 -0.1820 -1.0259  0.7379
19536SOL    HW260050   0.573   5.880   9.422  0.1551  0.0128 -0.6420
19537SOL     OW60051   0.682   0.442   3.790 -0.0411 -0.1302  0.3746
19537SOL    HW160052   0.595   0.408   3.770 -0.2020 -0.2467  1.2369
19537SOL    HW260053   0.702   0.501   3.717 -0.8003 -0.1679  0.1247
19538SOL     OW60054   3.712   4.852   8.084  0.4769  0.3779 -0.1854
19538SOL    HW160055   3.732   4.938   8.121  1.8345  0.6056 -1.3286
19538SOL    HW260056   3.773   4.792   8.128 -0.6327 -0.0624  0.7852
19539SOL     OW60057   3.913   1.201   3.034  0.7923  0.0500 -0.7093
19539SOL    HW160058   3.983   1.190   2.969 -0.6557  0.9573 -2.5363
19539SOL    HW260059   3.882   1.112   3.051  1.0576 -0.1887 -1.4341
19540SOL     OW60060   3.122   5.157   9.862 -0.5132 -0.0493  0.1977
19540SOL    HW160061   3.094   5.248   9.850 -3.0289 -0.4592  2.1478
19540SOL    HW260062   3.156   5.154   9.952 -1.2779 -1.1823  0.4774
19541SOL     OW60063   1.563   0.952   4.607 -0.1268 -0.0429 -0.1952
19541SOL    HW160064   1.621   0.901   4.664 -0.4704 -0.8634 -0.5637
19541SOL    HW260065   1.537   0.891   4.538 -1.5874  0.2353  0.0686
19542SOL     OW60066   0.209   6.428   3.106 -0.4655 -0.0230 -0.1281
19542SOL    HW160067   0.154   6.486   3.158 -0.9646  0.1277 -0.8043
19542SOL    HW260068   0.249   6.485   3.040  1.6053  0.1259  1.1753
19543SOL     OW60069   0.521   6.373   2.897  0.5289 -0.3479 -0.2356
19543SOL    HW160070   0.554   6.459   2.925 -0.7000 -0.1533  0.6721
19543SOL    HW260071   0.481   6.336   2.975  0.0173 -1.2569 -0.9154
19544SOL     OW60072   4.834   2.581  10.225  0.5833 -0.3557  0.4978
19544SOL    HW160073   4.886   2.509  10.259 -1.3103 -1.8127  0.4729
19544SOL    HW260074   4.765   2.594  10.289  0.8698  1.4592  0.4909
19545SOL     OW60075   6.634   3.373   7.421 -0.1563  0.2624 -0.5331
19545SOL    HW160076   6.572   3.396   7.491  0.8792  1.5063  0.0264
19545SOL    HW260077   6.719   3.401   7.455  0.8663 -2.1499 -0.9476
19546SOL     OW60078   3.991   0.719   8.171 -0.0966  0.2852  0.2966
19546SOL    HW160079   3.954   0.655   8.233  0.5543 -0.9786 -0.5805
19546SOL    HW260080   3.947   0.701   8.088  1.6824 -0.5549 -0.5138
19547SOL     OW60081   0.752   1.732   2.094 -0.4228 -0.3090  0.2257
19547SOL    HW160082   0.810   1.692   2.159  0.7444  0.2831 -0.4064
19547SOL    HW260083   0.719   1.658   2.042  0.3386 -0.6098  0.1526
19548SOL     OW60084   4.364   0.333   8.741  0.3250 -0.1282 -0.2026
19548SOL    HW160085   4.377   0.239   8.753 -1.7021 -0.2762  1.3578
19548SOL    HW260086   4.351   0.368   8.829  1.0627  1.6466 -0.7460
19549SOL     OW60087   7.660   4.352   8.683 -0.0659 -0.1843  0.3767
19549SOL    HW160088   7.588   4.370   8.743  0.6839 -1.2793  1.6648
19549SOL    HW260089   7.729   4.414   8.707  0.2142 -0.5832  0.6176
19550SOL     OW60090   4.372   6.008   8.686 -0.7460 -0.3127 -0.0173
19550SOL    HW160091   4.404   6.074   8.624  0.4827 -0.4648  0.4309
19550SOL    HW260092   4.441   6.000   8.751 -0.6783 -2.3164 -0.2655
19551SOL     OW60093   1.663   2.243   1.308 -0.1684  0.1948  0.0764
19551SOL    HW160094   1.660   2.154   1.272  0.3239 -0.3478  1.3335
19551SOL    HW260095   1.588   2.248   1.366 -0.4494  0.7629 -0.3322
19552SOL     OW60096   5.648   7.021   3.128  0.4748 -0.3234  0.2687
19552SOL    HW160097   5.624   6.937   3.089  0.1015  0.0618 -0.3469
19552SOL    HW260098   5.696   7.067   3.059  0.7240 -0.0463  0.6199
19553SOL     OW60099   2.795   0.763   5.977  0.0014  0.5153 -0.2410
19553SOL    HW160100   2.780   0.681   6.024  1.0328  0.3930 -0.0981
19553SOL    HW260101   2.841   0.819   6.039  1.5444  0.2850 -1.1167
19554SOL     OW60102   1.930   6.724   5.817 -0.8683  0.8404  0.2749
19554SOL    HW160103   1.872   6.733   5.893  0.5124 -1.9100  1.8147
19554SOL    HW260104   1.898   6.645   5.772 -0.3213  1.2028 -0.7951
19555SOL     OW60105   5.338   3.393   4.681 -0.3270  0.1714 -0.0399
19555SOL    HW160106   5.417   3.382   4.734 -0.4646 -2.5149 -0.2424
19555SOL    HW260107   5.270   3.349   4.731 -1.2369  0.6025 -0.8707
19556SOL     OW60108   5.371   1.428   7.241 -0.3809 -0.0637 -0.3113
19556SOL    HW160109   5.417   1.460   7.163 -0.6151 -0.3997 -0.5877
19556SOL    HW260110   5.405   1.482   7.312  0.7022 -0.5370 -0.4573
19557SOL     OW60111   7.241   3.113   7.356 -0.3948  0.2149  0.4985
19557SOL    HW160112   7.224   3.061   7.278  0.1707 -0.2206  0.6575
19557SOL    HW260113   7.169   3.177   7.358 -1.0040 -0.4373  0.2032
19558SOL     OW60114   1.435   3.482   9.978  0.2105  0.0288  0.0996
19558SOL    HW160115   1.394   3.563   9.947  0.5066 -0.0984 -0.6189
19558SOL    HW260116   1.362   3.422   9.991  0.0806  0.1158 -0.2375
19559SOL     OW60117   4.516   1.787  10.175  0.1546  0.4020  0.2763
19559SOL    HW160118   4.563   1.868  10.196 -0.4829  1.1414 -0.9934
19559SOL    HW260119   4.559   1.756  10.095 -0.3313  0.0957  0.1342
19560SOL     OW60120   3.867   3.515   0.539  0.1381  0.2812 -0.0869
19560SOL    HW160121   3.884   3.472   0.622  0.2893  1.3679  0.4661
19560SOL    HW260122   3.916   3.597   0.544 -2.0134  1.6445 -0.1044
19561SOL     OW60123   5.735   4.228   9.076  0.5622  0.4189  0.2340
19561SOL    HW160124   5.670   4.183   9.129  0.1434 -2.3138 -2.3393
19561SOL    HW260125   5.693   4.239   8.991  2.0218  2.4638 -0.3004
19562SOL     OW60126   4.407   1.665   7.142 -0.3389 -0.2947  0.1086
19562SOL    HW160127   4.313   1.650   7.139 -0.1203 -2.7565  2.0701
19562SOL    HW260128   4.417   1.748   7.188 -1.5740 -1.1493  2.0204
19563SOL     OW60129   3.066   1.350   7.264 -0.2744  0.0816  0.2675
19563SOL    HW160130   3.113   1.432   7.274 -1.1227  0.7584 -0.9954
19563SOL    HW260131   3.049   1.343   7.170  1.4593 -2.5050  0.0338
19564SOL     OW60132   2.613   1.454   9.909 -0.4382 -0.5511  0.4591
19564SOL    HW160133   2.607   1.436  10.003  1.6765 -0.7558  0.5910
19564SOL    HW260134   2.628   1.368   9.869  0.2967 -0.2767  0.1246
19565SOL     OW60135   7.029   0.023   8.721  0.1572  0.2433  0.2877
19565SOL    HW160136   6.957   0.062   8.770 -0.8361 -0.9086 -0.1970
19565SOL    HW260137   7.066   0.095   8.670 -0.4184  0.9149  0.8058
19566SOL     OW60138   7.840   5.860   6.704  0.5954 -0.8784  0.7630
19566SOL    HW160139   7.914   5.860   6.766  2.2817 -0.0640 -1.1374
19566SOL    HW260140   7.852   5.780   6.654 -2.1231 -2.7811  2.8728
19567SOL     OW60141   6.538   7.627   0.242  0.2129  0.1473  0.3017
19567SOL    HW160142   6.551   7.696   0.177 -1.1788  0.0473 -0.1165
19567SOL    HW260143   6.449   7.596   0.226 -0.1777  0.1403  2.2757
19568SOL     OW60144   5.430   1.672   1.957  0.0501  0.2609  0.4011
19568SOL    HW160145   5.360   1.608   1.955  0.6702 -0.4116 -1.1707
19568SOL    HW260146   5.423   1.714   2.043 -0.5775 -1.6554  1.3202
19569SOL     OW60147   5.144   2.138   5.402 -0.2489 -0.5153  0.6252
19569SOL    HW160148   5.157   2.045   5.420 -1.9894 -0.7042  1.0967
19569SOL    HW260149   5.068   2.141   5.344 -1.2447  0.6639  1.9129
19570SOL     OW60150   5.494   3.195   3.105 -0.5611  0.2273  0.1818
19570SOL    HW160151   5.442   3.128   3.061 -0.0887 -0.4477  0.6483
19570SOL    HW260152   5.559   3.147   3.156 -0.2537  1.0334  0.5751
19571SOL     OW60153   7.767   4.758   1.384 -0.0630  0.0704  0.0232
19571SOL    HW160154   7.833   4.688   1.390  1.3056  1.3834  0.8121
19571SOL    HW260155   7.691   4.715   1.344  0.6667 -1.9107  0.6275
19572SOL     OW60156   7.477   2.656   7.552 -0.3161 -0.0380  0.6513
19572SOL    HW160157   7.561   2.610   7.554  0.8980  2.0515  0.5393
19572SOL    HW260158   7.423   2.606   7.491  1.4712 -0.4253 -0.6848
19573SOL     OW60159   6.318   0.941   0.845 -0.0200  0.6989  0.2772
19573SOL    HW160160   6.296   0.993   0.767 -0.7060 -0.9637 -0.6949
19573SOL    HW260161   6.358   0.861   0.809  1.3969  0.7013  1.7390
19574SOL     OW60162   5.007   6.347   0.409 -0.3656  0.2690 -0.3039
19574SOL    HW160163   5.079   6.285   0.400 -1.0851 -0.4517 -1.2217
19574SOL    HW260164   5.037   6.408   0.477  0.7615 -0.4885 -0.0911
19575SOL     OW60165   1.351   1.282   6.686  0.1186  0.3361 -0.1825
19575SOL    HW160166   1.329   1.227   6.611  3.0444 -0.5133 -0.5504
19575SOL    HW260167   1.367   1.369   6.648  0.0259  0.3081 -0.2876
19576SOL     OW60168   1.016   0.758   2.230  0.4170 -0.0176 -0.2177
19576SOL    HW160169   0.937   0.750   2.178  0.5651 -0.6684 -0.3509
19576SOL    HW260170   0.997   0.829   2.292 -1.0443 -1.5159  1.1341
19577SOL     OW60171   2.111   7.812   7.512 -0.3205 -0.8013 -0.0854
19577SOL    HW160172   2.126   7.898   7.551 -0.8336 -0.5741 -0.3808
19577SOL    HW260173   2.173   7.754   7.557  1.6493  0.1320 -1.4534
19578SOL     OW60174   3.698   5.551  10.590  0.3406  0.2239  0.7255
19578SOL    HW160175   3.677   5.631  10.638  0.5149  1.2253 -0.7700
19578SOL    HW260176   3.745   5.582  10.512 -0.0226 -1.3033 -0.1496
19579SOL     OW60177   2.897   4.832   4.969 -0.6720  0.0306 -0.1989
19579SOL    HW160178   2.837   4.805   4.899 -1.6581  0.0562  0.6144
19579SOL    HW260179   2.842   4.879   5.031 -0.1552 -1.3882  1.4088
19580SOL     OW60180   4.790   7.900   5.443  0.3378 -0.2656 -0.3781
19580SOL    HW160181   4.801   7.952   5.363 -1.1169  0.4952 -0.1072
19580SOL    HW260182   4.877   7.862   5.458  0.4818 -0.9982 -2.6845
19581SOL     OW60183   0.572   3.106   6.014 -0.0595 -0.5097 -0.6358
19581SOL    HW160184   0.563   3.165   6.089  2.0466 -0.3030 -0.4865
19581SOL    HW260185   0.579   3.165   5.938 -2.5949 -0.7193 -1.1328
19582SOL     OW60186   0.749   0.815  12.091  0.0646  0.5056 -0.2546
19582SOL    HW160187   0.699   0.843  12.168  0.1038  1.6790 -0.6369
19582SOL    HW260188   0.840   0.824  12.118  0.1091 -1.3880  0.3541
19583SOL     OW60189   7.715   6.220   3.348  0.3238  0.1552  1.0439
19583SOL    HW160190   7.698   6.127   3.362  0.3075 -0.2139 -1.0238
19583SOL    HW260191   7.725   6.228   3.253 -0.2821  2.3706  1.1095
19584SOL     OW60192   2.830   1.849   9.868 -0.0769  0.2526 -0.2171
19584SOL    HW160193   2.838   1.767   9.821 -1.8623  0.1147 -0.3543
19584SOL    HW260194   2.907   1.852   9.926  0.4996 -1.0374 -0.8871
19585SOL     OW60195   2.659   2.012   0.704 -0.6372 -0.0580  0.0113
19585SOL    HW160196   2.587   1.954   0.679 -2.0282  1.9905 -0.9993
19585SOL    HW260197   2.672   2.068   0.628  2.0191 -0.2922  0.2082
19586SOL     OW60198   5.235   4.896   1.801  0.0917  0.2440  0.3303
19586SOL    HW160199   5.283   4.814   1.812  0.5846  0.7492  2.2793
19586SOL    HW260200   5.300   4.957   1.767 -0.3387 -0.1861 -1.3749
19587SOL     OW60201   4.156   0.793   1.101  0.2562 -0.5046  0.6538
19587SOL    HW160202   4.211   0.817   1.027  1.1227  0.3058  1.5318
19587SOL    HW260203   4.192   0.841   1.175 -0.4469 -1.4619  1.6644
19588SOL     OW60204   3.962   7.647  12.104 -0.3764  0.1953 -0.1128
19588SOL    HW160205   4.008   7.568  12.076  1.3176  0.5828  1.3631
19588SOL    HW260206   3.966   7.705  12.029  0.7010 -0.1732 -0.3650
19589SOL     OW60207   3.250   3.152   1.722 -0.3472 -0.4611  0.1151
19589SOL    HW160208   3.256   3.087   1.652 -2.0277  0.3803 -0.8556
19589SOL    HW260209   3.159   3.150   1.749 -0.1095  0.5225  1.0401
19590SOL     OW60210   6.689   4.990   5.733  0.0437  0.1782  0.3337
19590SOL    HW160211   6.737   5.039   5.665 -0.9295  0.6480 -0.0305
19590SOL    HW260212   6.750   4.921   5.760  0.5996  0.2286 -0.7374
19591SOL     OW60213   6.237   7.212   4.636 -0.4586  0.4757  0.0804
19591SOL    HW160214   6.275   7.196   4.549 -1.4120  0.1127 -0.2815
19591SOL    HW260215   6.143   7.195   4.625 -0.4741 -0.4119  1.3970
19592SOL     OW60216   5.414   6.643   6.342 -0.0142 -0.2025  0.4751
19592SOL    HW160217   5.490   6.584   6.341  1.0630  1.0113  2.6582
19592SOL    HW260218   5.343   6.591   6.378 -0.2012 -1.2778 -1.3415
19593SOL     OW60219   7.700   2.078   4.075  0.1078 -0.1012 -0.0688
19593SOL    HW160220   7.687   2.133   3.998 -1.5816 -0.3044  0.0387
19593SOL    HW260221   7.658   1.995   4.054  1.1372 -0.7792  0.4346
19594SOL     OW60222   6.605   3.456  10.948 -0.1909 -0.2563  0.0345
19594SOL    HW160223   6.688   3.409  10.947  0.3038  0.5639 -1.7357
19594SOL    HW260224   6.624   3.539  10.904 -1.2211  1.3062  2.3582
19595SOL     OW60225   1.132   7.697   2.019 -0.4122  0.2764 -0.4560
19595SOL    HW160226   1.113   7.605   2.000  0.5250  0.4646 -2.7326
19595SOL    HW260227   1.167   7.697   2.107  0.2923 -1.6783 -0.6883
19596SOL     OW60228   2.533   5.878  11.613 -0.2582  0.2670  0.0158
19596SOL    HW160229   2.560   5.966  11.589 -0.6609  0.3487 -0.1568
19596SOL    HW260230   2.484   5.889  11.694 -0.4745  0.2295 -0.1079
19597SOL     OW60231   5.040   6.815   4.590 -0.2114  0.1532  0.2549
19597SOL    HW160232   5.103   6.817   4.518  1.2121  0.4925  1.4614
19597SOL    HW260233   5.090   6.843   4.667 -1.7089 -0.0773  1.3629
19598SOL     OW60234   3.093   0.673   5.873 -0.2608 -0.7563  0.2549
19598SOL    HW160235   3.086   0.675   5.777 -1.9455  0.5719  0.3561
19598SOL    HW260236   3.158   0.741   5.893 -2.1510  1.1862  0.1351
19599SOL     OW60237   6.197   6.556   6.084  0.2151  0.2630  0.2950
19599SOL    HW160238   6.223   6.577   6.174  1.1274  0.9554 -0.1123
19599SOL    HW260239   6.165   6.639   6.049 -0.3137 -0.0473  0.0300
19600SOL     OW60240   3.919   2.717  12.233 -0.0957  0.4959  0.3895
19600SOL    HW160241   3.942   2.693  12.143 -2.5069 -0.1656 -0.1255
19600SOL    HW260242   3.839   2.768  12.224 -0.3896  0.4002  2.1741
19601SOL     OW60243   2.423   2.835   4.296 -0.2028 -0.2214  0.3125
19601SOL    HW160244   2.472   2.912   4.323 -0.0658 -0.1363 -0.1735
19601SOL    HW260245   2.331   2.862   4.301 -0.1393  0.2208 -0.5511
19602SOL     OW60246   6.066   3.254   6.656  0.3507 -0.2883 -0.1093
19602SOL    HW160247   6.011   3.190   6.609  0.1780  0.3926 -0.8505
19602SOL    HW260248   6.013   3.280   6.731  0.0287 -0.3160 -0.3236
19603SOL     OW60249   7.147   6.178   3.815 -0.3558  0.2401  0.2668
19603SOL    HW160250   7.057   6.160   3.788 -0.7975  0.6760  1.3977
19603SOL    HW260251   7.177   6.097   3.856 -0.4170  0.2715  0.3728
19604SOL     OW60252   5.468   4.146   2.715 -0.1454 -0.1208  0.4847
19604SOL    HW160253   5.394   4.090   2.739 -1.2521  1.3501  0.6132
19604SOL    HW260254   5.475   4.209   2.787  2.6238 -1.4810  1.5689
19605SOL     OW60255   3.217   6.152   6.805  0.2961  0.7402 -0.3435
19605SOL    HW160256   3.200   6.171   6.712  0.1391  0.4069 -0.3839
19605SOL    HW260257   3.295   6.204   6.826  0.1031  1.1220 -0.5559
19606SOL     OW60258   0.422   3.408  11.255 -0.5528 -0.2722 -0.7176
19606SOL    HW160259   0.454   3.494  11.229  0.2673 -0.7797 -1.4527
19606SOL    HW260260   0.337   3.425  11.297 -0.9684  0.7813 -1.9331
19607SOL     OW60261   0.844   1.599   0.343  0.1589  0.0027 -0.4533
19607SOL    HW160262   0.827   1.679   0.293 -0.6769  0.7411  0.9435
19607SOL    HW260263   0.785   1.534   0.305 -1.6588  0.9813  0.5278
19608SOL     OW60264   4.669   3.690  12.122  0.3461  0.2957  0.2103
19608SOL    HW160265   4.694   3.602  12.095 -3.0676 -1.2283  1.3574
19608SOL    HW260266   4.679   3.744  12.044  1.9823 -1.1771 -0.6711
19609SOL     OW60267   3.514   5.026   1.947 -0.6997 -0.3463 -0.5517
19609SOL    HW160268   3.555   4.940   1.945  1.3638  0.5769 -2.7132
19609SOL    HW260269   3.436   5.018   1.892 -1.7946 -1.3222  1.0541
19610SOL     OW60270   7.642   3.577   0.125 -0.0044 -0.4083  0.1235
19610SOL    HW160271   7.622   3.511   0.058  0.5863 -0.9623  0.4887
19610SOL    HW260272   7.717   3.624   0.090 -0.3718  0.0252 -0.0964
19611SOL     OW60273   1.608   2.569  10.701 -0.2207 -0.0836 -0.4518
19611SOL    HW160274   1.643   2.604  10.619 -0.2980 -0.3068 -0.5810
19611SOL    HW260275   1.513   2.567  10.688 -0.1371 -1.7200 -1.0115
19612SOL     OW60276   7.657   1.250   9.545  0.0223  0.8197  0.2889
19612SOL    HW160277   7.617   1.181   9.598  0.3633  1.7543  1.8384
19612SOL    HW260278   7.586   1.313   9.531  0.0901  0.8686  0.1707
19613SOL     OW60279   5.480   3.531   2.686 -0.4926 -0.0750  0.0369
19613SOL    HW160280   5.502   3.609   2.736  0.4399  0.5032 -1.2280
19613SOL    HW260281   5.447   3.565   2.603  0.9584 -1.0052 -0.9624
19614SOL     OW60282   2.192   5.376   9.159  0.0393  0.5577  0.1893
19614SOL    HW160283   2.252   5.437   9.116  1.0487 -0.4120  0.1689
19614SOL    HW260284   2.233   5.290   9.147 -0.0559  0.1529  2.3873
19615SOL     OW60285   3.732   6.508   3.902 -0.0943  0.1525  0.1182
19615SOL    HW160286   3.718   6.577   3.837 -1.3214  0.2904  0.5125
19615SOL    HW260287   3.648   6.499   3.946  1.0327  0.9630  2.5711
19616SOL     OW60288   4.859   0.395   7.448 -0.5127 -0.3064 -0.1346
19616SOL    HW160289   4.849   0.328   7.517 -0.8948  0.5354  0.6461
19616SOL    HW260290   4.902   0.468   7.492  1.0535 -0.4807 -1.2942
19617SOL     OW60291   0.498   2.598   0.421 -0.5438  0.2031 -0.0162
19617SOL    HW160292   0.534   2.535   0.360 -1.1408  0.3720 -0.5534
19617SOL    HW260293   0.570   2.658   0.440 -0.3679  0.1779 -0.5931
19618SOL     OW60294   3.730   3.368   1.791  0.0269 -0.2751  0.5849
19618SOL    HW160295   3.795   3.351   1.723  1.5420  0.8628  1.6918
19618SOL    HW260296   3.668   3.429   1.749  1.9384  1.8783  0.6838
19619SOL     OW60297   1.520   3.728   8.959 -0.3032  0.0039  0.1644
19619SOL    HW160298   1.566   3.772   9.031 -1.2343  0.6875  0.3587
19619SOL    HW260299   1.545   3.778   8.881 -1.0579  0.6798  0.3343
19620SOL     OW60300   3.132   2.274   2.917 -0.6479 -0.8787 -0.1689
19620SOL    HW160301   3.103   2.309   2.833 -0.2854  2.2475  0.8840
19620SOL    HW260302   3.225   2.254   2.903 -0.6292 -0.5395 -0.5636
19621SOL     OW60303   0.731   6.651   4.590 -0.1346  0.0036  0.1162
19621SOL    HW160304   0.687   6.612   4.666 -2.2927  2.0025 -0.0201
19621SOL    HW260305   0.820   6.668   4.621 -0.2896 -1.3438  1.4205
19622SOL     OW60306   4.842   0.334   3.288  0.3169  0.3467  0.1602
19622SOL    HW160307   4.799   0.324   3.372  1.1035 -2.0657  0.3432
19622SOL    HW260308   4.772   0.332   3.223 -0.1929  1.0739  0.6843
19623SOL     OW60309   2.410   3.783  10.898  0.2157  0.3367 -0.0300
19623SOL    HW160310   2.378   3.872  10.911 -1.8807 -0.3934  0.1723
19623SOL    HW260311   2.434   3.753  10.985  0.3232  0.4710 -0.0118
19624SOL     OW60312   2.218   7.841   7.272 -0.0386  0.0379  0.5495
19624SOL    HW160313   2.156   7.832   7.344 -2.3395 -0.1142 -1.3472
19624SOL    HW260314   2.236   7.751   7.245  1.0053  0.0839  1.0491
19625SOL     OW60315   7.132   2.947   7.567  0.5487 -0.0079 -0.0403
19625SOL    HW160316   7.201   2.946   7.634  1.1824  1.4946 -0.6197
19625SOL    HW260317   7.158   3.017   7.507 -0.9913 -0.0651 -0.8268
19626SOL     OW60318   4.326   2.751   1.830  0.2871 -0.5125 -0.1095
19626SOL    HW160319   4.249   2.784   1.782  0.2852 -1.0058 -0.4452
19626SOL    HW260320   4.294   2.674   1.877  0.4772 -0.4711  0.0913
19627SOL     OW60321   4.577   4.020   5.060  0.5047  0.1844 -0.2202
19627SOL    HW160322   4.645   4.070   5.103  0.2958 -0.8149  1.3510
19627SOL    HW260323   4.624   3.961   5.000  0.8391  1.0956 -0.8758
19628SOL     OW60324   3.686   0.216   9.925 -0.7210  0.3396 -0.0531
19628SOL    HW160325   3.678   0.309   9.947  0.0996  1.2402 -3.0509
19628SOL    HW260326   3.607   0.196   9.874  0.1048  0.0318 -1.2569
19629SOL     OW60327   3.102   5.723   4.704  0.1356  0.0477  0.1484
19629SOL    HW160328   3.007   5.732   4.707  0.0822 -0.6238  0.6824
19629SOL    HW260329   3.119   5.637   4.742  0.8281 -0.6353 -1.5768
19630SOL     OW60330   1.871   6.041   8.615  0.4616  0.1613  0.4342
19630SOL    HW160331   1.861   6.124   8.662 -1.4764 -0.3353  0.9817
19630SOL    HW260332   1.965   6.024   8.617  0.8224  1.9535  0.9635
19631SOL     OW60333   6.662   1.699   7.031 -0.2883  0.4894  0.4796
19631SOL    HW160334   6.640   1.639   7.102 -0.9962  1.9914  1.5872
19631SOL    HW260335   6.586   1.696   6.973 -0.7358  0.9700  1.0190
19632SOL     OW60336   6.627   0.979   1.978 -0.2473 -0.4730 -0.7210
19632SOL    HW160337   6.705   0.995   2.031 -1.9412 -0.8667  2.1243
19632SOL    HW260338   6.656   0.919   1.909  1.9921 -0.3697  0.0490
19633SOL     OW60339   6.840   5.025   0.603 -0.4504  0.3247  0.3387
19633SOL    HW160340   6.793   5.065   0.530 -2.1451  0.5246  1.5027
19633SOL    HW260341   6.841   5.092   0.671 -0.8317 -0.6117  1.2919
19634SOL     OW60342   1.100   2.014  10.262 -0.0914 -0.2622 -0.6603
19634SOL    HW160343   1.023   2.070  10.270  0.1940  0.1307 -0.6094
19634SOL    HW260344   1.173   2.075  10.254  0.2802 -0.6224 -0.0786
19635SOL     OW60345   2.340   1.557   2.802  0.2440  0.0354  0.5498
19635SOL    HW160346   2.276   1.528   2.867  1.0755 -0.2210  1.2713
19635SOL    HW260347   2.372   1.641   2.835  0.3558  0.1131  0.2483
19636SOL     OW60348   2.141   5.918  11.700 -0.7613 -0.0463  0.6033
19636SOL    HW160349   2.198   5.972  11.756 -0.7433  1.1242 -0.4961
19636SOL    HW260350   2.072   5.888  11.759  0.3233 -0.5275  1.7011
19637SOL     OW60351   6.491   7.325   8.355  0.5894 -0.7452 -0.0379
19637SOL    HW160352   6.448   7.405   8.384 -0.4923 -0.7278 -1.5950
19637SOL    HW260353   6.580   7.353   8.332 -0.1686  0.3558 -1.8838
19638SOL     OW60354   0.070   6.582   7.249 -0.0351 -0.5416  0.4807
19638SOL    HW160355   0.049   6.489   7.260 -0.6157 -0.3744  0.8035
19638SOL    HW260356   0.103   6.609   7.334 -0.3761 -0.3197  0.5433
19639SOL     OW60357   0.621   5.896   3.269  0.0769 -0.5433  0.1234
19639SOL    HW160358   0.591   5.825   3.212  0.1189  0.1749 -0.8189
19639SOL    HW260359   0.593   5.869   3.357  0.4101 -1.8855 -0.1580
19640SOL     OW60360   7.335   5.930   3.299  0.2156 -0.6063 -0.0209
19640SOL    HW160361   7.342   6.014   3.253  0.0113 -0.6646 -0.1609
19640SOL    HW260362   7.411   5.928   3.356  0.4771 -0.5309 -0.3594
19641SOL     OW60363   6.612   1.478   5.484 -0.0738 -0.3089 -0.0722
19641SOL    HW160364   6.705   1.501   5.482 -0.2982  0.5994 -0.2901
19641SOL    HW260365   6.586   1.493   5.575 -0.0715 -0.3146 -0.0706
19642SOL     OW60366   6.995   4.065   3.976  0.6462  0.2087  0.0761
19642SOL    HW160367   6.973   3.990   3.922 -2.1543  0.6421  0.4681
19642SOL    HW260368   7.058   4.115   3.924 -0.1909 -0.5731 -1.7500
19643SOL     OW60369   2.990   7.401   1.340 -0.0318  0.0774 -0.3739
19643SOL    HW160370   2.937   7.474   1.308 -0.2669  0.0578 -0.0386
19643SOL    HW260371   2.961   7.389   1.430  1.0797  0.5515  0.0504
19644SOL     OW60372   7.558   7.797  11.440 -0.1651 -0.1865  0.2207
19644SOL    HW160373   7.543   7.705  11.462 -0.8435 -0.4720 -1.3090
19644SOL    HW260374   7.564   7.841  11.525  1.2566 -1.7729  1.0225
19645SOL     OW60375   6.469   2.464   6.989 -0.6954  0.4731 -0.2435
19645SOL    HW160376   6.536   2.531   7.007 -0.4777 -0.2633  2.0586
19645SOL    HW260377   6.498   2.423   6.907  0.7206  1.3434 -0.2207
19646SOL     OW60378   1.186   3.383  10.874 -0.2215  0.3093 -0.0289
19646SOL    HW160379   1.279   3.376  10.853 -0.0365  0.3651  0.7717
19646SOL    HW260380   1.180   3.459  10.932 -0.8271  0.5731 -0.4253
19647SOL     OW60381   6.405   5.931   5.252 -0.6272 -0.1642 -0.0462
19647SOL    HW160382   6.499   5.913   5.256 -0.6514 -0.5165 -0.7387
19647SOL    HW260383   6.388   5.948   5.159 -1.3558 -0.7508 -0.0319
19648SOL     OW60384   4.690   6.808   3.028 -0.2248 -0.0741  0.2277
19648SOL    HW160385   4.756   6.742   3.008  1.0575  0.8241  1.3207
19648SOL    HW260386   4.639   6.769   3.099 -0.3126 -0.4201 -0.0241
19649SOL     OW60387   5.776   7.638   1.562 -0.6502  0.2616 -0.5967
19649SOL    HW160388   5.823   7.678   1.635 -3.0227 -1.1520  1.9046
19649SOL    HW260389   5.803   7.546   1.563 -2.2446 -0.2332 -0.0609
19650SOL     OW60390   6.157   5.928   1.234  0.4552 -0.5421  0.2073
19650SOL    HW160391   6.224   5.994   1.221  0.9892 -1.2274 -0.6637
19650SOL    HW260392   6.203   5.845   1.224 -0.2460 -1.0539  1.0390
19651SOL     OW60393   7.670   4.739   4.063  0.5000  0.3623  0.3943
19651SOL    HW160394   7.575   4.753   4.067  0.6931  1.6994  0.7984
19651SOL    HW260395   7.680   4.644   4.056 -0.9493  0.3015 -2.8474
19652SOL     OW60396   4.716   2.137  11.933 -0.0909 -0.0598 -0.1562
19652SOL    HW160397   4.769   2.213  11.910 -0.0261  0.2866  1.0755
19652SOL    HW260398   4.627   2.172  11.942  0.2943  0.4401  2.8159
19653SOL     OW60399   1.822   7.304   6.377  0.1502  0.3452 -0.3236
19653SOL    HW160400   1.885   7.253   6.327 -0.9277 -0.8794 -0.4785
19653SOL    HW260401   1.843   7.395   6.356  2.5619  0.0515  0.4970
19654SOL     OW60402   7.868   4.239   8.929  0.0230  0.7947  0.1410
19654SOL    HW160403   7.790   4.246   8.984  0.2276  1.0879  0.4044
19654SOL    HW260404   7.886   4.329   8.902  0.4622  0.7809  0.3656
19655SOL     OW60405   5.921   2.539   4.542 -0.7301  0.1315 -0.1171
19655SOL    HW160406   5.890   2.553   4.632  0.1963  0.2227  0.2009
19655SOL    HW260407   5.968   2.456   4.546 -0.2433  0.3884 -0.3982
19656SOL     OW60408   7.411   4.749   1.931 -0.1798  0.4337 -0.3086
19656SOL    HW160409   7.481   4.685   1.941 -2.3460 -2.2234 -0.8865
19656SOL    HW260410   7.433   4.819   1.992  2.0642 -1.0947  0.7539
19657SOL     OW60411   3.340   7.279   9.749 -0.0817 -1.2608 -0.2946
19657SOL    HW160412   3.264   7.247   9.798 -0.3580  0.1715  0.2448
19657SOL    HW260413   3.315   7.269   9.657 -1.2721 -0.0569 -0.1282
19658SOL     OW60414   1.439   6.885   6.352  0.2538 -0.4402 -0.0837
19658SOL    HW160415   1.423   6.979   6.356 -2.0360 -0.7882  0.7946
19658SOL    HW260416   1.493   6.866   6.429 -1.3230 -0.1328  1.1491
19659SOL     OW60417   4.880   4.493   1.266  0.1001 -0.7105  0.0540
19659SOL    HW160418   4.870   4.405   1.230  0.3678 -0.6569 -0.1556
19659SOL    HW260419   4.918   4.480   1.353  0.6719 -0.7769 -0.1988
19660SOL     OW60420   3.417   6.164   8.934  0.0500 -0.0548  0.1666
19660SOL    HW160421   3.394   6.166   8.841 -1.5195 -1.9449  0.4317
19660SOL    HW260422   3.511   6.148   8.936  0.3379  1.3817 -1.0711
19661SOL     OW60423   4.322   3.738   1.716 -0.3739 -0.1827  0.2436
19661SOL    HW160424   4.397   3.744   1.775  0.0772  0.9489 -0.4117
19661SOL    HW260425   4.361   3.729   1.629 -0.8565  3.1356 -0.4322
19662SOL     OW60426   3.343   1.917   1.364  0.3989  0.4475 -0.0590
19662SOL    HW160427   3.429   1.929   1.403  0.9624  1.0454 -1.4317
19662SOL    HW260428   3.315   2.006   1.339 -0.1585  0.1411 -0.5551
19663SOL     OW60429   0.454   0.151   7.880  0.3708  0.2699  0.1623
19663SOL    HW160430   0.358   0.157   7.882  0.3161 -0.7313  1.1803
19663SOL    HW260431   0.476   0.097   7.956  1.7518  0.5172 -0.0477
19664SOL     OW60432   5.215   5.196   6.647 -0.2496  0.4401 -0.3699
19664SOL    HW160433   5.210   5.102   6.628 -1.3055  0.0621  1.5752
19664SOL    HW260434   5.283   5.204   6.714 -0.0685  1.0903 -0.6217
19665SOL     OW60435   5.898   7.528   2.757 -0.4248 -0.5768  0.5151
19665SOL    HW160436   5.816   7.506   2.713  0.4750 -2.1961 -0.4341
19665SOL    HW260437   5.899   7.474   2.836 -0.1521 -0.7783  0.3769
19666SOL     OW60438   6.593   0.968   8.904  0.5820  0.0267  0.1241
19666SOL    HW160439   6.580   1.059   8.930 -1.4787 -0.0346 -0.5057
19666SOL    HW260440   6.623   0.923   8.983  0.9155  1.1076  0.6197
19667SOL     OW60441   6.284   3.377   8.746 -0.0023 -0.1789  0.1581
19667SOL    HW160442   6.280   3.281   8.753 -2.8005 -0.1445  0.1918
19667SOL    HW260443   6.284   3.407   8.837  2.0542 -0.0754  0.1872
19668SOL     OW60444   1.709   2.479   9.887  0.1487  0.2687 -0.4983
19668SOL    HW160445   1.615   2.498   9.893  0.1719 -0.0401  1.4731
19668SOL    HW260446   1.751   2.549   9.937  0.6657 -1.4587  1.6673
19669SOL     OW60447   6.403   6.825   9.468  0.6567 -0.0266 -0.3959
19669SOL    HW160448   6.481   6.769   9.473  0.0346 -0.7807  2.5272
19669SOL    HW260449   6.371   6.830   9.558 -2.4094  0.6509 -1.3992
19670SOL     OW60450   3.301   0.590   1.280  0.4116  0.7733 -0.1524
19670SOL    HW160451   3.366   0.529   1.313  0.2053  0.1154 -0.9042
19670SOL    HW260452   3.234   0.593   1.348 -0.5557 -1.4183 -0.9114
19671SOL     OW60453   2.179   6.046   4.103  0.3635 -1.2038  0.4834
19671SOL    HW160454   2.192   6.126   4.052  1.0307 -1.5336  0.1232
19671SOL    HW260455   2.089   6.020   4.085 -0.0900 -0.1609  1.1465
19672SOL     OW60456   4.063   6.626   8.098 -0.2064 -0.0012  0.0460
19672SOL    HW160457   4.050   6.717   8.071 -1.0015  0.1858  0.9867
19672SOL    HW260458   3.990   6.608   8.158 -0.1008 -1.2786 -0.1628
19673SOL     OW60459   5.387   4.015   8.685  0.0606  0.4609 -0.0826
19673SOL    HW160460   5.433   3.931   8.675  1.0703  0.6997  1.9888
19673SOL    HW260461   5.350   4.011   8.773  0.6049  2.4176  0.2709
19674SOL     OW60462   3.878   1.058  11.492  0.3796  0.0332 -0.0478
19674SOL    HW160463   3.831   1.015  11.421 -0.5468 -0.1658  0.6624
19674SOL    HW260464   3.872   1.151  11.472  1.8480 -0.0896 -1.2594
19675SOL     OW60465   1.226   7.040   0.793 -0.0270 -0.5637 -0.6892
19675SOL    HW160466   1.140   7.019   0.830  0.6218 -0.6086  0.8884
19675SOL    HW260467   1.288   6.993   0.849  1.0693  0.0310 -1.3660
19676SOL     OW60468   1.637   4.894   8.506  0.1109  0.2297 -0.1046
19676SOL    HW160469   1.611   4.802   8.503 -2.3745  0.8267  0.2476
19676SOL    HW260470   1.574   4.934   8.566  0.1787  2.4190 -1.3959
19677SOL     OW60471   3.145   3.842   4.475 -0.1553  0.0678  0.3531
19677SOL    HW160472   3.177   3.890   4.398 -1.6084  3.2659  1.5650
19677SOL    HW260473   3.073   3.789   4.441  0.2616  0.1707 -0.7501
19678SOL     OW60474   7.875   2.168   9.135 -1.1103 -0.0335  0.0822
19678SOL    HW160475   7.787   2.138   9.112 -1.0065 -1.7038  1.6493
19678SOL    HW260476   7.934   2.118   9.079 -1.1108  0.7084 -0.6002
19679SOL     OW60477   5.927   4.829   2.260 -0.1993 -0.1067  0.4196
19679SOL    HW160478   5.843   4.826   2.214 -0.4159  1.1357  0.7106
19679SOL    HW260479   5.918   4.764   2.330  0.0584 -1.8794 -1.1043
19680SOL     OW60480   1.740   5.591   2.597 -0.5409 -0.6908 -0.4947
19680SOL    HW160481   1.686   5.567   2.672 -1.3320  0.5617 -0.6493
19680SOL    HW260482   1.678   5.599   2.524  0.0300 -0.4887 -0.9631
19681SOL     OW60483   0.979   5.541   5.566 -0.4329 -0.4085 -0.4281
19681SOL    HW160484   0.909   5.595   5.602 -0.2351  0.5825 -1.4830
19681SOL    HW260485   1.001   5.480   5.637 -0.9629  0.6000  0.6385
19682SOL     OW60486   2.215   0.374   2.996 -0.9556  0.2726  0.3764
19682SOL    HW160487   2.156   0.351   3.068 -1.4734 -2.9943 -0.9144
19682SOL    HW260488   2.171   0.447   2.952 -1.5132  1.1603  2.2819
19683SOL     OW60489   4.329   1.095   5.228 -0.1571  0.2502 -0.2394
19683SOL    HW160490   4.269   1.091   5.154 -0.4888  1.6418 -0.0659
19683SOL    HW260491   4.353   1.188   5.235  1.5033 -0.1645  0.0987
19684SOL     OW60492   1.446   1.390   0.466 -0.5900 -0.4841  0.3463
19684SOL    HW160493   1.520   1.329   0.475 -0.1065  0.2522  1.6842
19684SOL    HW260494   1.418   1.381   0.375  2.7066  0.9438 -0.9724
19685SOL     OW60495   1.917   5.377   2.223  0.0354  0.6280  0.1684
19685SOL    HW160496   1.867   5.459   2.227 -0.8253  0.1535 -0.3844
19685SOL    HW260497   1.927   5.360   2.129  0.1053  0.0463  0.2754
19686SOL     OW60498   3.514   7.173   7.251 -0.2187 -0.2117 -0.0385
19686SOL    HW160499   3.447   7.131   7.305 -1.5395 -0.0355 -1.4844
19686SOL    HW260500   3.593   7.120   7.265 -1.0628 -1.3603  0.4971
19687SOL     OW60501   7.388   6.299   8.794 -0.2369 -0.0244 -0.4199
19687SOL    HW160502   7.453   6.368   8.811 -0.1826 -0.1838  0.0325
19687SOL    HW260503   7.309   6.346   8.767  0.0071  0.1809 -0.7824
19688SOL     OW60504   1.994   4.455  12.226  0.1855  0.2601  0.4898
19688SOL    HW160505   2.049   4.387  12.187  2.3872  1.5469  1.2025
19688SOL    HW260506   1.979   4.517  12.155  0.1023  0.1858  0.4415
19689SOL     OW60507   4.623   7.826   0.379 -0.2485 -0.4673  0.2849
19689SOL    HW160508   4.574   7.746   0.360  1.2731 -0.9107 -2.2797
19689SOL    HW260509   4.714   7.795   0.390 -0.0733  0.6148  2.2533
19690SOL     OW60510   7.061   0.766   0.219 -0.4723  0.6831 -0.1166
19690SOL    HW160511   7.098   0.767   0.308  0.4204  0.1866 -0.4673
19690SOL    HW260512   7.120   0.708   0.170 -0.8426  1.1189 -1.0857
19691SOL     OW60513   1.648   3.430   5.182 -0.6362 -0.0720  0.1560
19691SOL    HW160514   1.731   3.436   5.135 -0.9623 -0.0439 -0.4303
19691SOL    HW260515   1.608   3.350   5.149 -2.0532  1.2664 -1.6181
19692SOL     OW60516   4.006   1.995   9.961 -0.2911 -0.5113  0.6674
19692SOL    HW160517   4.061   1.943  10.019  1.0557  0.5837  0.4149
19692SOL    HW260518   3.939   1.933   9.930 -0.1943 -1.4541  2.2518
19693SOL     OW60519   2.637   7.381   1.485 -0.1187 -0.1478  0.5532
19693SOL    HW160520   2.599   7.310   1.537  0.8128 -0.2503  1.1131
19693SOL    HW260521   2.722   7.398   1.525 -0.3689  1.3768  0.5199
19694SOL     OW60522   2.277   2.103   2.147  0.0065 -0.1159  0.1674
19694SOL    HW160523   2.327   2.030   2.110 -1.9911 -1.4404 -0.0908
19694SOL    HW260524   2.187   2.071   2.148 -0.4540  0.9862  3.4532
19695SOL     OW60525   4.297   2.452  11.349  0.0874  0.5387  0.3956
19695SOL    HW160526   4.212   2.444  11.306  0.4736  0.9592 -0.4609
19695SOL    HW260527   4.298   2.541  11.383  0.3602  0.6848  0.0124
19696SOL     OW60528   1.245   0.118   5.964 -0.0679  0.0039  0.3899
19696SOL    HW160529   1.178   0.119   5.895  1.2577 -0.1946 -0.9621
19696SOL    HW260530   1.327   0.135   5.917  0.5919  2.5892  2.2866
19697SOL     OW60531   7.676   3.014   1.051  0.2483 -0.0037 -0.3643
19697SOL    HW160532   7.595   3.064   1.062 -0.3845 -0.9280 -0.6936
19697SOL    HW260533   7.738   3.077   1.014 -0.2791  0.7480 -0.0007
19698SOL     OW60534   7.157   7.173  12.310 -0.0071 -0.1877 -0.1769
19698SOL    HW160535   7.090   7.181  12.242 -0.7721 -0.9517  0.4661
19698SOL    HW260536   7.234   7.216  12.273 -0.6012 -0.0284 -1.2646
19699SOL     OW60537   0.638   3.344   6.670 -0.1144  0.0807  0.3316
19699SOL    HW160538   0.695   3.413   6.636  0.9001 -1.2104 -0.7303
19699SOL    HW260539   0.578   3.324   6.597  0.5121 -1.0778  0.1036
19700SOL     OW60540   5.454   6.950   1.050 -0.0148 -0.4062 -0.0995
19700SOL    HW160541   5.401   6.934   1.128  0.4330 -0.7437  0.1437
19700SOL    HW260542   5.425   6.884   0.987 -1.6103  0.9780 -0.8623
19701SOL     OW60543   0.902   2.397   8.641 -0.6589 -0.3467 -0.1889
19701SOL    HW160544   0.987   2.435   8.664 -0.2219  0.3870 -2.7219
19701SOL    HW260545   0.909   2.305   8.669  0.5050 -0.0061  0.7125
19702SOL     OW60546   5.382   1.029  11.390 -0.1805  0.1447 -0.1805
19702SOL    HW160547   5.415   1.000  11.305  0.4924 -0.1566  0.1706
19702SOL    HW260548   5.368   1.123  11.379 -1.3412 -0.1014 -0.9992
19703SOL     OW60549   4.090   5.948   4.100 -0.0813  0.0630  0.1617
19703SOL    HW160550   4.113   5.884   4.032  1.9519  0.2066  0.6543
19703SOL    HW260551   4.078   6.030   4.052 -0.7822 -0.2689 -0.2484
19704SOL     OW60552   0.912   3.393   7.882  0.1400  0.6376 -0.0853
19704SOL    HW160553   0.926   3.301   7.861  0.8385  0.6048  0.4687
19704SOL    HW260554   0.817   3.405   7.876 -0.0505 -0.3405  0.7172
19705SOL     OW60555   3.386   1.526   1.192 -0.1919  0.5592  0.4641
19705SOL    HW160556   3.378   1.442   1.237  1.0086  0.3659  0.3677
19705SOL    HW260557   3.471   1.560   1.221  0.1793  0.8704 -0.9321
19706SOL     OW60558   3.369   6.916   2.447  0.0328 -0.3823 -0.4705
19706SOL    HW160559   3.345   6.898   2.538  0.4639  0.7156 -0.1283
19706SOL    HW260560   3.333   6.842   2.398 -1.9742  0.0058  0.3193
19707SOL     OW60561   0.545   7.134   3.523  0.6715  0.1279  0.3369
19707SOL    HW160562   0.605   7.112   3.451  1.5375  3.1690 -0.0233
19707SOL    HW260563   0.488   7.202   3.487 -2.0342 -1.5078  1.2020
19708SOL     OW60564   6.246   3.897   9.509  0.4384  0.2581 -0.3158
19708SOL    HW160565   6.185   3.878   9.438  0.4189 -0.7946 -0.0421
19708SOL    HW260566   6.234   3.824   9.570 -0.7140  1.9400  1.5773
19709SOL     OW60567   1.900   0.115   7.474  0.3604 -0.7018 -0.3192
19709SOL    HW160568   1.900   0.059   7.397  1.7136 -2.4136  0.8452
19709SOL    HW260569   1.851   0.193   7.447  1.1106 -1.0540 -2.9922
19710SOL     OW60570   3.346   6.985  12.069 -0.0057  0.3391 -0.2832
19710SOL    HW160571   3.258   7.006  12.102  0.9370  2.6020  0.9853
19710SOL    HW260572   3.388   6.937  12.141  1.5267  3.9522  1.4902
19711SOL     OW60573   0.312   0.911   6.302 -0.1444  0.3045 -0.5133
19711SOL    HW160574   0.257   0.954   6.368 -0.7415 -0.2777 -0.6281
19711SOL    HW260575   0.394   0.960   6.304 -0.5987  1.0658 -0.2078
19712SOL     OW60576   0.432   6.923  10.870  0.8037  0.1395  0.1938
19712SOL    HW160577   0.514   6.973  10.876  2.2808 -2.1624  0.3578
19712SOL    HW260578   0.404   6.913  10.961 -0.6035  2.2244  0.0790
19713SOL     OW60579   2.506   7.556   0.155 -0.6198 -0.3580 -0.3102
19713SOL    HW160580   2.544   7.628   0.204 -0.3288 -0.6664 -0.0775
19713SOL    HW260581   2.466   7.500   0.222 -0.1853 -0.8022 -0.4130
19714SOL     OW60582   0.509   1.944   3.611 -0.2384  0.0444 -0.6744
19714SOL    HW160583   0.565   1.866   3.615  2.0022  1.5828  0.7351
19714SOL    HW260584   0.524   1.980   3.523  1.7284  0.8417 -0.0778
19715SOL     OW60585   1.184   2.116   4.255 -0.3135 -0.5920  0.0368
19715SOL    HW160586   1.226   2.114   4.341 -0.8111 -0.8914  0.2783
19715SOL    HW260587   1.221   2.041   4.208 -0.9326 -1.1501  0.4240
19716SOL     OW60588   7.354   0.388   9.785 -0.3429 -0.0346  0.7046
19716SOL    HW160589   7.359   0.298   9.754 -0.8347 -1.0005  3.2129
19716SOL    HW260590   7.431   0.399   9.842 -0.2743  1.1418  0.4241
19717SOL     OW60591   4.968   0.967   7.041 -0.0361 -0.2144 -0.6267
19717SOL    HW160592   4.932   0.964   6.953 -0.4702  0.1248 -0.4645
19717SOL    HW260593   4.979   0.875   7.066 -1.3901 -0.3452 -0.4365
19718SOL     OW60594   7.851   6.695   6.354  0.4805 -0.1045 -0.2440
19718SOL    HW160595   7.810   6.709   6.269  0.0656 -2.3198 -0.4565
19718SOL    HW260596   7.945   6.692   6.334  0.5064  0.9291 -0.3570
19719SOL     OW60597   0.651   7.778   9.393 -0.5453 -0.8746 -0.5178
19719SOL    HW160598   0.664   7.766   9.299  1.1553 -2.0603 -0.1890
19719SOL    HW260599   0.595   7.855   9.401 -1.4167 -1.2516 -2.5124
19720SOL     OW60600   5.715   4.839   4.558  0.0078 -0.1275  0.0007
19720SOL    HW160601   5.798   4.883   4.578 -1.2416  1.8654  1.0261
19720SOL    HW260602   5.742   4.761   4.508  2.4458  0.7432 -0.2096
19721SOL     OW60603   0.383   0.814   8.585 -0.3365 -0.5056 -0.4812
19721SOL    HW160604   0.303   0.826   8.636  0.0974  1.9680 -0.2589
19721SOL    HW260605   0.452   0.849   8.641  0.7673 -1.6104 -1.1152
19722SOL     OW60606   7.054   5.783   5.724  0.0284  0.1074 -0.2866
19722SOL    HW160607   7.083   5.697   5.755  1.2150 -0.4817 -2.7810
19722SOL    HW260608   6.958   5.777   5.722  0.1060 -1.7105 -1.6868
19723SOL     OW60609   2.306   2.097   4.976  0.1774 -0.7996 -0.1993
19723SOL    HW160610   2.273   2.185   4.996 -0.8861 -1.0673 -0.6759
19723SOL    HW260611   2.290   2.047   5.057  0.3722 -0.6651 -0.0773
19724SOL     OW60612   2.016   2.240   7.857  0.6874  0.6742  0.6291
19724SOL    HW160613   2.092   2.279   7.815  1.3738  0.5413  1.7081
19724SOL    HW260614   1.989   2.306   7.922  1.4349 -0.3114  1.9894
19725SOL     OW60615   4.233   6.812   2.620  0.1912  0.4398  0.0355
19725SOL    HW160616   4.232   6.718   2.604  0.9602  0.2908  0.7881
19725SOL    HW260617   4.287   6.822   2.699  0.7337  1.5731 -0.4665
19726SOL     OW60618   2.447   3.051   1.852 -0.1847 -0.1186  0.7399
19726SOL    HW160619   2.463   3.143   1.873 -0.1533  0.3302 -1.0801
19726SOL    HW260620   2.386   3.054   1.779 -0.6513 -1.5862  1.0477
19727SOL     OW60621   7.209   2.006   8.603 -0.0740 -0.1059 -0.4951
19727SOL    HW160622   7.244   1.964   8.681  0.6732 -0.6861 -1.1257
19727SOL    HW260623   7.114   2.010   8.617  0.0894  0.1327  0.5902
19728SOL     OW60624   0.539   6.406  10.358  0.1559 -0.2731  0.5064
19728SOL    HW160625   0.593   6.455  10.296  0.0247 -1.2580 -0.4335
19728SOL    HW260626   0.496   6.339  10.304  0.7781 -1.7807  1.7986
19729SOL     OW60627   1.612   7.806   3.893 -0.1870  0.0155  0.2632
19729SOL    HW160628   1.688   7.860   3.915 -0.1608  0.2833 -0.4628
19729SOL    HW260629   1.606   7.743   3.965 -0.1056  0.8604  1.0331
19730SOL     OW60630   2.548   1.508   6.879  0.0597  0.7533  0.2792
19730SOL    HW160631   2.611   1.474   6.943  1.1974 -0.9544 -1.6252
19730SOL    HW260632   2.602   1.539   6.807 -1.2486  0.0633 -1.0376
19731SOL     OW60633   4.583   0.832   6.607  0.7320  0.2375  0.0981
19731SOL    HW160634   4.545   0.832   6.519  0.9450  0.6463  0.0019
19731SOL    HW260635   4.539   0.904   6.653  1.5761  0.9157 -0.1081
19732SOL     OW60636   6.589   0.789  12.353 -0.0912 -0.5978  0.6221
19732SOL    HW160637   6.669   0.788  12.405  0.7125 -1.5005 -0.5947
19732SOL    HW260638   6.615   0.828  12.270 -1.2116  0.2275  0.6331
19733SOL     OW60639   5.505   3.135  11.345  0.5640 -0.2589 -0.4351
19733SOL    HW160640   5.549   3.050  11.347  1.4188  0.1790  1.4359
19733SOL    HW260641   5.426   3.123  11.398  0.6897  0.1279 -0.1610
19734SOL     OW60642   0.289   4.893   2.974  0.1898  0.5547 -0.5555
19734SOL    HW160643   0.234   4.816   2.963  2.1740 -1.2166  1.1047
19734SOL    HW260644   0.316   4.916   2.885 -0.3854 -0.7040 -1.0771
19735SOL     OW60645   3.443   4.748  10.158  0.1378 -0.6491  0.1976
19735SOL    HW160646   3.488   4.793  10.230 -1.6567 -0.8243  1.5013
19735SOL    HW260647   3.359   4.722  10.196  0.6347 -4.1545 -0.8054
19736SOL     OW60648   6.293   5.163  11.838  0.2241  0.1355 -0.4702
19736SOL    HW160649   6.218   5.190  11.786  0.8801  0.4794 -1.2611
19736SOL    HW260650   6.350   5.240  11.839  0.6325 -0.1659  0.0031
19737SOL     OW60651   3.626   5.910  10.784  0.1408  0.0878 -0.4503
19737SOL    HW160652   3.562   5.937  10.718  0.0319 -1.1808 -0.9063
19737SOL    HW260653   3.693   5.863  10.734  0.7789  0.3177  0.1806
19738SOL     OW60654   7.103   0.444   1.209  0.3925 -0.0092 -0.6340
19738SOL    HW160655   7.095   0.537   1.231 -0.1256 -0.1973 -0.0022
19738SOL    HW260656   7.046   0.432   1.134 -1.5591 -0.3100  0.8057
19739SOL     OW60657   6.908   4.079   1.145 -0.1348 -0.0502 -0.5286
19739SOL    HW160658   6.838   4.143   1.136  0.4140  0.4170 -1.7734
19739SOL    HW260659   6.985   4.132   1.167  0.2960 -0.2648 -1.4540
19740SOL     OW60660   4.582   1.378   5.637 -0.2794  0.2661  0.5470
19740SOL    HW160661   4.498   1.351   5.602 -1.0076  1.5686  1.1793
19740SOL    HW260662   4.604   1.457   5.588  0.1388  0.4284  0.9831
19741SOL     OW60663   5.632   1.249   1.955 -0.3311 -0.9985  0.0022
19741SOL    HW160664   5.553   1.263   1.903 -0.3762  1.0246  0.5447
19741SOL    HW260665   5.602   1.197   2.030 -1.9021  2.1218  1.7453
19742SOL     OW60666   3.148   2.902   6.687  0.2148 -0.3276  0.3042
19742SOL    HW160667   3.239   2.930   6.683 -0.1323  0.7577 -0.4554
19742SOL    HW260668   3.142   2.831   6.623  0.1175  0.9227 -1.1471
19743SOL     OW60669   0.871   6.915   2.265 -0.1312  0.3420  0.2297
19743SOL    HW160670   0.938   6.882   2.205  0.4542  1.6067  0.1801
19743SOL    HW260671   0.851   6.840   2.321  0.3747 -0.4295 -0.5926
19744SOL     OW60672   1.118   0.292   7.445 -0.3993 -0.1329  0.4310
19744SOL    HW160673   1.090   0.205   7.474  0.4883 -0.8107 -0.6434
19744SOL    HW260674   1.111   0.288   7.349 -2.0974  1.6107  0.4148
19745SOL     OW60675   7.679   2.809   5.739  0.8946  0.8612  0.0286
19745SOL    HW160676   7.721   2.765   5.665 -1.5660  0.1321 -1.0653
19745SOL    HW260677   7.676   2.901   5.715 -1.5981  0.4051 -1.8294
19746SOL     OW60678   3.372   6.243   5.570 -0.0200  0.2242  0.1680
19746SOL    HW160679   3.393   6.156   5.604 -2.0278 -0.1155  0.6756
19746SOL    HW260680   3.312   6.227   5.497  2.6673  1.0473 -2.4073
19747SOL     OW60681   3.222   4.564   0.990  0.0054 -0.4514 -0.2377
19747SOL    HW160682   3.166   4.486   0.991  0.1880 -0.5803  0.0125
19747SOL    HW260683   3.206   4.604   0.904 -0.4604 -0.4948 -0.1750
19748SOL     OW60684   1.686   5.221   1.430 -0.0161 -0.0226  0.3845
19748SOL    HW160685   1.779   5.216   1.411 -0.0002 -0.1657  0.4946
19748SOL    HW260686   1.664   5.313   1.422  0.2768  0.1102  1.0433
19749SOL     OW60687   2.298   3.657  12.463 -0.8333 -0.7535  0.3665
19749SOL    HW160688   2.210   3.633  12.434 -1.1300  0.5166  0.1477
19749SOL    HW260689   2.347   3.671  12.382 -1.2151  1.2362  0.4427
19750SOL     OW60690   1.476   1.405   2.323 -0.3052 -0.1041 -0.2275
19750SOL    HW160691   1.510   1.490   2.296 -1.4322 -0.1180 -1.8507
19750SOL    HW260692   1.393   1.425   2.367  0.4790 -0.2431  1.3902
19751SOL     OW60693   0.404   6.610   3.536 -0.1621 -0.1541  0.3950
19751SOL    HW160694   0.318   6.639   3.566  0.2432 -1.0891  2.6077
19751SOL    HW260695   0.386   6.548   3.465 -1.2584  0.2570  0.3065
19752SOL     OW60696   6.939   0.951   3.828  0.7819 -0.1162 -0.5346
19752SOL    HW160697   6.967   0.861   3.846 -1.0639 -0.5902  0.1549
19752SOL    HW260698   6.974   1.002   3.901  1.2863 -0.3890 -0.5838
19753SOL     OW60699   4.746   2.535  12.448  0.2167  0.1165 -0.6403
19753SOL    HW160700   4.687   2.513  12.520 -2.6091 -0.4046 -2.9081
19753SOL    HW260701   4.713   2.484  12.374  1.4720  2.3307 -2.8772
19754SOL     OW60702   2.994   7.322   4.826 -0.1326  0.1359 -0.6999
19754SOL    HW160703   2.996   7.388   4.895  1.2579 -0.6627  0.0601
19754SOL    HW260704   2.926   7.352   4.766  0.6336  2.3926 -0.5160
19755SOL     OW60705   7.581   4.402   9.374  0.0441  0.5092  0.1088
19755SOL    HW160706   7.507   4.384   9.432  0.3108  1.8739  0.9241
19755SOL    HW260707   7.555   4.481   9.326 -0.1136 -0.5180 -1.5867
19756SOL     OW60708   4.817   2.531   1.515 -0.3094 -0.1372 -0.2474
19756SOL    HW160709   4.800   2.438   1.529  0.1450 -0.5408 -2.1359
19756SOL    HW260710   4.749   2.559   1.454 -0.6068  0.8475  0.5167
19757SOL     OW60711   0.032   1.603   1.349 -0.3803  0.6407 -0.2930
19757SOL    HW160712   0.019   1.685   1.397 -2.2592 -0.0262  0.4103
19757SOL    HW260713   0.070   1.630   1.265 -1.1499  2.2476 -0.1549
19758SOL     OW60714   1.198   6.680   5.899  0.4459 -0.1602 -0.1256
19758SOL    HW160715   1.191   6.612   5.966  0.8102  1.2040  1.3769
19758SOL    HW260716   1.289   6.677   5.872  0.5640 -0.0100  0.2429
19759SOL     OW60717   4.878   2.504   0.256  0.6850 -0.3813 -0.3018
19759SOL    HW160718   4.892   2.498   0.162  1.4022 -1.0375 -0.1707
19759SOL    HW260719   4.832   2.423   0.279  1.7292 -0.8986  0.0872
19760SOL     OW60720   6.922   1.166  11.908  0.4873  0.0202  0.2482
19760SOL    HW160721   6.848   1.168  11.969 -0.4277  3.3099 -0.7563
19760SOL    HW260722   6.994   1.203  11.958  0.3644  0.5059  0.0750
19761SOL     OW60723   5.318   6.965   2.097 -0.2274 -0.1998 -0.5358
19761SOL    HW160724   5.314   7.060   2.110 -0.6007 -0.1573 -0.9129
19761SOL    HW260725   5.270   6.951   2.015 -2.0941 -0.9279  0.6121
19762SOL     OW60726   4.640   0.791   3.933  0.2681  0.2063  0.5170
19762SOL    HW160727   4.733   0.805   3.915  0.7981 -0.4384  2.5696
19762SOL    HW260728   4.624   0.701   3.906  0.0665  0.4853 -0.3517
19763SOL     OW60729   7.849   4.000  10.836  0.5965  0.1046 -0.3811
19763SOL    HW160730   7.933   3.958  10.817 -0.7058 -1.9261 -2.2946
19763SOL    HW260731   7.784   3.942  10.794 -1.7188  1.8160  0.6263
19764SOL     OW60732   7.662   7.377  10.881  0.2790  0.5103 -0.9389
19764SOL    HW160733   7.616   7.459  10.862  0.4767  0.9226  0.2458
19764SOL    HW260734   7.667   7.375  10.977  1.8927  0.0205 -1.0140
19765SOL     OW60735   3.312   5.137   9.038  0.3745  0.6508  0.2351
19765SOL    HW160736   3.232   5.113   9.085  0.6645  1.7996  1.3689
19765SOL    HW260737   3.368   5.060   9.046  0.0325  0.4667  0.9380
19766SOL     OW60738   0.098   4.267   0.975  0.2640  0.1301 -0.2816
19766SOL    HW160739   0.123   4.273   0.883 -0.3405  2.2431 -0.3598
19766SOL    HW260740   0.179   4.282   1.023  0.0092  2.7271 -0.5273
19767SOL     OW60741   1.903   5.140   0.894  0.1082 -0.0132 -0.0914
19767SOL    HW160742   1.939   5.080   0.829  1.7722  0.1375  0.6497
19767SOL    HW260743   1.890   5.222   0.846  3.0011  0.6383  0.0914
19768SOL     OW60744   2.269   5.138   8.991  0.4156  0.4369  0.0216
19768SOL    HW160745   2.260   5.160   8.898  0.5417  0.2731 -0.0307
19768SOL    HW260746   2.360   5.158   9.011  0.3646  0.5569  0.1342
19769SOL     OW60747   1.026   7.963   0.593 -0.3165  0.1754  0.3151
19769SOL    HW160748   1.058   7.940   0.506  2.2166 -1.3231  1.5076
19769SOL    HW260749   1.025   7.880   0.640 -2.1795  0.8592  1.6076
19770SOL     OW60750   3.790   2.978   1.702  0.1445 -0.0684  1.2378
19770SOL    HW160751   3.816   3.069   1.691  0.4692 -0.2124  0.7712
19770SOL    HW260752   3.737   2.959   1.624  0.3978 -0.3861  1.1399
19771SOL     OW60753   4.023   3.276   0.371 -0.4223 -0.5350  0.2527
19771SOL    HW160754   4.044   3.234   0.287  0.3280 -0.5403  0.4325
19771SOL    HW260755   4.016   3.369   0.350  1.6676 -0.2738  0.4829
19772SOL     OW60756   6.516   4.903   0.868  0.3034  0.2186 -0.2015
19772SOL    HW160757   6.501   4.825   0.815 -0.8174  0.3578 -0.1148
19772SOL    HW260758   6.604   4.891   0.904 -0.6265 -2.0451  1.5250
19773SOL     OW60759   6.257   7.293  11.742 -0.1611 -0.1830 -0.0939
19773SOL    HW160760   6.287   7.380  11.715  0.9272 -1.0182 -1.7345
19773SOL    HW260761   6.221   7.254  11.663 -0.4746 -1.3061  0.5728
19774SOL     OW60762   5.734   7.008  11.703  0.8252 -0.1119 -0.2193
19774SOL    HW160763   5.770   7.017  11.791 -0.8479  0.5032  0.4514
19774SOL    HW260764   5.667   6.940  11.712 -1.4547  1.9586 -0.2174
19775SOL     OW60765   5.632   5.963   7.681 -0.3786 -0.3249 -0.2372
19775SOL    HW160766   5.625   5.955   7.586  0.3927  1.3908 -0.4823
19775SOL    HW260767   5.598   6.051   7.700 -2.2458 -1.3120  1.3143
19776SOL     OW60768   6.012   6.042  11.748 -0.1714 -0.0053 -0.4623
19776SOL    HW160769   5.923   6.027  11.716 -0.8695  0.3331  1.1808
19776SOL    HW260770   6.002   6.049  11.843  1.2478  2.5285 -0.4083
19777SOL     OW60771   5.238   4.074   4.072  0.0412  0.3638 -0.1555
19777SOL    HW160772   5.320   4.053   4.118  0.5159  0.2373 -1.0434
19777SOL    HW260773   5.173   4.015   4.111  0.1533  1.0848  1.1941
19778SOL     OW60774   5.954   3.468   9.060 -0.1206  0.1639 -0.1462
19778SOL    HW160775   5.903   3.544   9.087  0.4042  1.0560 -1.6117
19778SOL    HW260776   5.895   3.394   9.074 -0.3633  0.6949  2.0637
19779SOL     OW60777   0.473   0.418   8.233  0.2331 -0.5555 -0.4227
19779SOL    HW160778   0.497   0.327   8.248 -1.6644 -0.9112  0.8238
19779SOL    HW260779   0.499   0.463   8.313  0.6176 -0.1026 -0.7943
19780SOL     OW60780   3.587   0.388   1.026  0.2448  1.1635 -0.2920
19780SOL    HW160781   3.670   0.389   1.073 -0.2717  0.3002  0.6727
19780SOL    HW260782   3.563   0.480   1.017  0.8311  1.3723  0.2629
19781SOL     OW60783   5.802   2.074   0.823  0.1656 -0.3065 -0.4086
19781SOL    HW160784   5.766   2.043   0.906  0.5708  0.6097  0.1155
19781SOL    HW260785   5.767   2.163   0.813 -0.7378 -0.7688 -1.7444
19782SOL     OW60786   4.997   0.447   1.334 -0.2508  0.0133  0.2761
19782SOL    HW160787   5.028   0.537   1.350 -0.4886  0.0265  0.6795
19782SOL    HW260788   5.054   0.393   1.389  1.4990 -0.3412 -1.7575
19783SOL     OW60789   5.636   4.019   0.257  0.0559  0.1336  0.4803
19783SOL    HW160790   5.559   4.071   0.278 -1.4247 -0.6293 -2.5797
19783SOL    HW260791   5.626   3.939   0.309 -1.6934 -0.3199 -0.5170
19784SOL     OW60792   2.357   7.098   4.452  0.2325 -0.3813 -0.1363
19784SOL    HW160793   2.440   7.117   4.408 -0.5014 -0.7897 -1.7615
19784SOL    HW260794   2.299   7.067   4.383 -1.9950  1.9359  0.5020
19785SOL     OW60795   5.159   0.448   7.828  0.4662  0.0408 -0.2053
19785SOL    HW160796   5.099   0.473   7.898  0.7504  1.1708 -0.3360
19785SOL    HW260797   5.115   0.479   7.748  1.3051  1.0992 -0.2814
19786SOL     OW60798   3.356   0.773   1.819  0.1469 -0.5085 -0.3606
19786SOL    HW160799   3.273   0.768   1.772  0.2818  0.5206 -0.7373
19786SOL    HW260800   3.347   0.849   1.877  0.3081 -1.2379  0.6477
19787SOL     OW60801   6.010   3.650   4.780  0.1724  0.0143  0.0215
19787SOL    HW160802   6.094   3.642   4.824  0.3589  0.0730 -0.3258
19787SOL    HW260803   5.997   3.744   4.768  0.0104  0.0115  0.1625
19788SOL     OW60804   4.424   6.631   7.440 -0.0560  0.5050 -0.5033
19788SOL    HW160805   4.480   6.621   7.517 -1.0797 -0.1137  0.1837
19788SOL    HW260806   4.405   6.725   7.435  0.6059  0.6494 -0.4506
19789SOL     OW60807   2.885   4.809   8.179  0.7216  0.1106  0.4636
19789SOL    HW160808   2.816   4.782   8.118  1.2787 -3.1064  1.0734
19789SOL    HW260809   2.966   4.790   8.132  1.1932  1.2633  0.7947
19790SOL     OW60810   6.050   3.082  11.980 -0.7076  0.1638 -0.1142
19790SOL    HW160811   6.136   3.080  11.938 -1.9860 -0.7101 -2.9612
19790SOL    HW260812   6.003   3.151  11.935 -1.1079  1.7124  2.4677
19791SOL     OW60813   2.651   5.658  10.649 -0.2872 -0.1293 -0.0636
19791SOL    HW160814   2.684   5.740  10.612  1.3192 -0.9235 -0.4728
19791SOL    HW260815   2.631   5.603  10.573  1.1852 -1.0589  0.1752
19792SOL     OW60816   3.048   0.024   2.992 -0.5255  0.0749 -0.1306
19792SOL    HW160817   2.952   0.023   2.990 -0.5405  1.3144 -1.1085
19792SOL    HW260818   3.070   0.084   3.063 -0.4421 -1.3786  1.1016
19793SOL     OW60819   1.580   1.803  11.588  0.8223  0.0439 -0.7091
19793SOL    HW160820   1.566   1.812  11.682 -1.4210 -0.0400 -0.9765
19793SOL    HW260821   1.675   1.793  11.578  1.3970  2.4432  1.3334
19794SOL     OW60822   6.382   7.966   3.201 -0.2036  0.3539  0.1835
19794SOL    HW160823   6.441   7.939   3.272  1.7562  0.8659 -1.1595
19794SOL    HW260824   6.401   7.904   3.130  1.8257  2.8849 -1.7213
19795SOL     OW60825   3.294   6.178   8.053 -0.3730  0.0023 -0.5093
19795SOL    HW160826   3.272   6.090   8.085  1.4014 -0.5776 -0.8013
19795SOL    HW260827   3.348   6.216   8.123 -1.0833  0.8589 -0.4132
19796SOL     OW60828   4.921   2.445   0.615 -0.0710 -0.0141  0.4189
19796SOL    HW160829   4.850   2.453   0.679  1.1124  0.2481  1.7816
19796SOL    HW260830   4.932   2.351   0.603 -0.4210 -0.0636  0.4777
19797SOL     OW60831   1.765   3.414   9.967 -0.3532 -0.6805  0.3283
19797SOL    HW160832   1.730   3.503   9.961  2.6532  0.5435 -0.8023
19797SOL    HW260833   1.717   3.366   9.899 -0.4581  0.6768 -0.6001
19798SOL     OW60834   2.051   7.693   5.377  0.7344 -0.3288 -0.3093
19798SOL    HW160835   2.022   7.784   5.382  0.3330 -0.5137  1.6129
19798SOL    HW260836   1.974   7.646   5.345  0.3324 -0.2058  0.4339
19799SOL     OW60837   7.492   2.325   4.228  0.3051 -0.5476 -0.4835
19799SOL    HW160838   7.551   2.266   4.180  1.3221  0.6602 -0.7701
19799SOL    HW260839   7.509   2.411   4.190  0.4774  0.3011  1.4184
19800SOL     OW60840   1.468   0.033  12.330 -0.3943 -0.6960 -0.2987
19800SOL    HW160841   1.413   0.083  12.270  0.0468 -0.9548 -0.9319
19800SOL    HW260842   1.500   0.097  12.393 -2.0291 -0.6781  0.5489
19801SOL     OW60843   3.215   4.673   1.264  0.2928  0.2905  0.5089
19801SOL    HW160844   3.228   4.734   1.191 -0.4273 -0.6125 -0.3989
19801SOL    HW260845   3.159   4.604   1.228 -2.0505  0.9940  2.5418
19802SOL     OW60846   7.765   0.149   0.369 -0.1209  0.4123  0.1002
19802SOL    HW160847   7.689   0.144   0.427  0.6418 -1.3647  1.0175
19802SOL    HW260848   7.839   0.162   0.428  0.4399  0.8048 -0.6724
19803SOL     OW60849   0.126   5.957   5.475  0.5749  0.3832 -0.9226
19803SOL    HW160850   0.216   5.934   5.451  0.3942  0.4135 -1.6608
19803SOL    HW260851   0.134   5.999   5.561  0.7708 -3.9576  1.4483
19804SOL     OW60852   0.461   4.034   7.139  0.2058  0.4012  0.1764
19804SOL    HW160853   0.442   3.990   7.222  2.4476 -1.6043 -0.2631
19804SOL    HW260854   0.499   4.119   7.165 -1.6278  0.9929  1.0922
19805SOL     OW60855   1.783   0.552  10.932  0.3120 -0.2682  1.2307
19805SOL    HW160856   1.714   0.563  10.998  0.4487  1.5097  1.1169
19805SOL    HW260857   1.857   0.602  10.965 -0.6140  3.3761 -1.6111
19806SOL     OW60858   3.437   6.557   3.883  0.4218  0.5005 -0.4614
19806SOL    HW160859   3.380   6.574   3.958  2.2949 -0.0505  1.1533
19806SOL    HW260860   3.452   6.643   3.844  1.2128  1.1506  1.1793
19807SOL     OW60861   1.669   2.419   9.613 -0.3361  0.2436 -0.1979
19807SOL    HW160862   1.713   2.334   9.605 -0.9339 -0.1170  0.2916
19807SOL    HW260863   1.698   2.452   9.698  0.3389  0.7976 -0.6291
19808SOL     OW60864   4.792   1.746   4.959 -0.4624  0.4487 -0.1260
19808SOL    HW160865   4.736   1.669   4.961  1.5898 -1.2112 -2.2007
19808SOL    HW260866   4.753   1.803   4.893 -0.5314 -0.0148 -0.4865
19809SOL     OW60867   3.396   5.038   1.287 -0.3870 -0.2580  0.1148
19809SOL    HW160868   3.331   4.971   1.311 -0.5303 -0.6300 -1.2367
19809SOL    HW260869   3.361   5.119   1.324 -0.6823 -0.7739  0.9867
19810SOL     OW60870   2.026   0.650  11.051 -0.2501  0.5832  0.3382
19810SOL    HW160871   2.109   0.690  11.025  1.4480 -1.8898  1.4819
19810SOL    HW260872   2.017   0.672  11.144 -1.5522  1.7996 -0.0350
19811SOL     OW60873   7.679   6.728   0.823 -0.5191  0.2293 -0.3440
19811SOL    HW160874   7.652   6.778   0.746  0.4629 -1.5880 -1.9773
19811SOL    HW260875   7.608   6.740   0.886 -1.3355  1.8276 -1.4985
19812SOL     OW60876   6.852   0.211   2.869  0.2251  0.0777  0.0973
19812SOL    HW160877   6.820   0.121   2.875  1.0065 -0.2565 -0.4981
19812SOL    HW260878   6.812   0.246   2.790  0.6165 -0.0523 -0.1641
19813SOL     OW60879   6.048   0.956   7.446  0.2678  0.0002  0.4589
19813SOL    HW160880   6.077   0.932   7.534  0.3486 -3.2157 -0.3285
19813SOL    HW260881   5.982   0.891   7.423 -0.0016  0.9576 -1.7580
19814SOL     OW60882   3.029   1.692   9.037  0.3053  0.1588 -0.2735
19814SOL    HW160883   2.987   1.760   8.984 -0.1522  0.9587  1.0910
19814SOL    HW260884   3.037   1.618   8.977  0.8235  1.3941 -1.7915
19815SOL     OW60885   4.793   7.937   9.666 -0.2078 -0.2335 -0.0649
19815SOL    HW160886   4.757   7.924   9.754 -0.1967 -1.1870 -0.1949
19815SOL    HW260887   4.862   7.872   9.658 -1.4962 -1.5056 -1.4763
19816SOL     OW60888   2.477   5.493   3.204  0.1021 -0.1240  0.4330
19816SOL    HW160889   2.505   5.562   3.144  0.5660 -0.8950 -0.2638
19816SOL    HW260890   2.520   5.414   3.171 -1.7232 -1.0808  0.2018
19817SOL     OW60891   7.151   4.095   7.197  0.1582  0.2049 -0.3417
19817SOL    HW160892   7.230   4.145   7.217  0.3980 -1.1337  2.5557
19817SOL    HW260893   7.083   4.136   7.250 -1.0228  0.9001 -2.2713
19818SOL     OW60894   7.738   3.529   4.289  0.6769  0.0533  0.7045
19818SOL    HW160895   7.777   3.455   4.336 -0.2242  0.6403  2.4407
19818SOL    HW260896   7.803   3.551   4.222  1.9856 -0.8585  1.6204
19819SOL     OW60897   0.183   0.136   2.245  0.5399 -0.2508  0.5666
19819SOL    HW160898   0.139   0.216   2.274 -1.4732 -0.5476 -1.3585
19819SOL    HW260899   0.220   0.098   2.325 -0.8787  1.1690  1.9690
19820SOL     OW60900   0.746   5.516   3.115 -0.5317  0.2501 -0.2557
19820SOL    HW160901   0.719   5.426   3.096  1.9257 -0.6173  0.0316
19820SOL    HW260902   0.796   5.510   3.196  0.2650  1.7492 -0.5938
19821SOL     OW60903   2.302   1.721   6.821 -0.1494 -0.1658  0.0132
19821SOL    HW160904   2.309   1.667   6.742  1.4939  1.6869 -1.2102
19821SOL    HW260905   2.219   1.694   6.861 -0.9460 -1.3415 -2.2349
19822SOL     OW60906   0.883   1.975   2.432  0.0085  0.2815 -0.0828
19822SOL    HW160907   0.944   1.941   2.499  0.1737  1.2649  0.2797
19822SOL    HW260908   0.798   1.978   2.477 -0.5783 -2.0136 -0.8713
19823SOL     OW60909   2.133   6.570   7.263  0.7209  0.3470  0.0462
19823SOL    HW160910   2.076   6.637   7.227  1.0206 -0.0355 -1.1926
19823SOL    HW260911   2.097   6.488   7.229  1.0273 -0.0213  0.6064
19824SOL     OW60912   5.831   3.121   2.681 -0.0013 -0.2518  0.3397
19824SOL    HW160913   5.760   3.172   2.641 -1.4452 -2.7708 -0.5254
19824SOL    HW260914   5.911   3.160   2.646 -1.0513  1.1114 -0.6460
19825SOL     OW60915   6.450   4.089   2.291 -0.3519  0.2917 -0.4507
19825SOL    HW160916   6.455   4.141   2.211  2.0426  0.3150 -0.3654
19825SOL    HW260917   6.363   4.107   2.326 -0.5702  2.1697 -1.8139
19826SOL     OW60918   2.470   5.203   8.647  0.0835 -0.2531  0.7279
19826SOL    HW160919   2.560   5.232   8.658 -0.2590  0.7723  0.8630
19826SOL    HW260920   2.473   5.148   8.569  1.3994 -2.7891  2.4081
19827SOL     OW60921   0.690   5.532  11.105 -0.4830  0.3470 -0.3253
19827SOL    HW160922   0.713   5.466  11.040  1.9967  1.3107 -0.5460
19827SOL    HW260923   0.773   5.556  11.145 -1.8084  0.5064  2.5746
19828SOL     OW60924   5.297   1.586   2.775  0.4558  0.3199 -0.2029
19828SOL    HW160925   5.244   1.513   2.744  0.8881 -0.4147  0.7595
19828SOL    HW260926   5.360   1.601   2.705  0.8063 -0.6835 -0.1154
19829SOL     OW60927   2.409   6.548   4.607  0.2624  0.0918 -0.4529
19829SOL    HW160928   2.389   6.630   4.561  0.2685 -0.3892 -1.3524
19829SOL    HW260929   2.325   6.520   4.643  0.1702  0.2721 -0.5264
19830SOL     OW60930   1.798   7.248   7.965 -0.4685  0.0708  0.4948
19830SOL    HW160931   1.718   7.242   7.914 -0.6090 -0.5591  0.7848
19830SOL    HW260932   1.844   7.166   7.948  0.0347  0.3527  0.4642
19831SOL     OW60933   1.238   0.824   7.890  0.0896 -0.6370 -0.1724
19831SOL    HW160934   1.149   0.806   7.920  0.0327 -0.4632 -0.2371
19831SOL    HW260935   1.243   0.920   7.885 -1.2530 -0.5739 -4.7006
19832SOL     OW60936   1.187   7.729  10.013 -0.0898 -0.2852 -0.8197
19832SOL    HW160937   1.135   7.724  10.093  1.6536 -0.6648  0.3558
19832SOL    HW260938   1.153   7.805   9.966 -2.0884 -0.8987 -0.4392
19833SOL     OW60939   0.711   6.173   3.077 -0.4901 -0.5756  0.3100
19833SOL    HW160940   0.755   6.092   3.101 -1.0063 -1.2393 -0.9204
19833SOL    HW260941   0.637   6.179   3.138 -0.7588 -1.3159  0.0627
19834SOL     OW60942   6.383   2.999   4.486  0.1965 -0.0939  0.3456
19834SOL    HW160943   6.371   3.094   4.477  1.6289  0.0541 -0.3821
19834SOL    HW260944   6.300   2.967   4.521 -0.5541  1.3411 -0.0488
19835SOL     OW60945   4.082   4.919   1.542  0.0089  0.0789  0.7553
19835SOL    HW160946   4.172   4.937   1.515 -0.2629  0.8056  0.2962
19835SOL    HW260947   4.076   4.950   1.632 -0.1586  1.3914  0.3208
19836SOL     OW60948   4.808   3.307   8.015  0.1375 -0.8012 -0.0933
19836SOL    HW160949   4.720   3.275   7.996  0.5474 -1.8293 -0.2756
19836SOL    HW260950   4.848   3.320   7.929 -0.7192  2.3159 -0.1482
19837SOL     OW60951   0.334   0.595   0.139 -0.5951 -0.3349  0.5259
19837SOL    HW160952   0.330   0.683   0.102  1.3064 -0.1661  0.6102
19837SOL    HW260953   0.258   0.589   0.196 -0.8212  1.2237  0.4235
19838SOL     OW60954   1.831   6.477   7.390 -0.0562 -0.4209  0.0761
19838SOL    HW160955   1.831   6.440   7.478  1.6737 -0.9701 -0.1083
19838SOL    HW260956   1.817   6.401   7.332 -1.3245 -0.0449 -0.1418
19839SOL     OW60957   4.268   7.548   6.983  0.1889  0.7753  0.0428
19839SOL    HW160958   4.191   7.520   6.935  1.0532  0.3995 -1.1812
19839SOL    HW260959   4.267   7.643   6.979 -0.8933  0.8442  1.1917
19840SOL     OW60960   1.076   4.285   2.513 -0.3338 -0.2777  0.3612
19840SOL    HW160961   1.054   4.197   2.482 -1.4766 -0.5207  1.7137
19840SOL    HW260962   1.171   4.291   2.504 -0.4395 -0.8447 -1.7088
19841SOL     OW60963   7.508   4.712   8.457  0.2557  0.0033 -0.2686
19841SOL    HW160964   7.526   4.794   8.410  0.5046 -0.2089 -0.5506
19841SOL    HW260965   7.569   4.713   8.531  0.7891 -0.2781 -0.6989
19842SOL     OW60966   5.016   6.708   8.039  0.4701 -0.1073  0.8771
19842SOL    HW160967   4.938   6.762   8.035  0.3323 -0.3685 -0.2660
19842SOL    HW260968   5.028   6.689   8.132 -1.7031 -1.3402  0.9652
19843SOL     OW60969   6.749   5.254   9.085  0.0518 -0.4169  0.2289
19843SOL    HW160970   6.702   5.310   9.024 -2.2729 -0.7748  1.5538
19843SOL    HW260971   6.761   5.308   9.163  1.3361 -0.5521  0.1561
19844SOL     OW60972   5.296   3.789   4.382  0.4750  0.5586  0.0316
19844SOL    HW160973   5.293   3.857   4.449  0.2900  1.0876 -0.5015
19844SOL    HW260974   5.299   3.707   4.431  1.6991  0.9805  0.6943
19845SOL     OW60975   0.849   6.004   4.962 -0.9339 -0.3391  0.3238
19845SOL    HW160976   0.821   5.913   4.951 -0.3699 -0.2792 -2.0759
19845SOL    HW260977   0.831   6.045   4.878  1.7641  0.9337  0.2504
19846SOL     OW60978   7.070   3.734   2.563 -0.4300  0.4297 -0.7277
19846SOL    HW160979   6.979   3.708   2.546 -0.8505  0.7183  0.9188
19846SOL    HW260980   7.088   3.803   2.499 -0.3975 -1.5133 -2.9612
19847SOL     OW60981   2.672   3.354   8.467  0.2619 -0.1699 -0.3244
19847SOL    HW160982   2.653   3.279   8.410  1.6793 -2.2688  1.7940
19847SOL    HW260983   2.761   3.379   8.445  0.0971  0.3670 -0.4072
19848SOL     OW60984   3.471   3.260   8.984 -0.3162  0.5055  0.5638
19848SOL    HW160985   3.396   3.213   9.019  0.9090 -1.2837  0.9497
19848SOL    HW260986   3.547   3.209   9.014  1.1855  3.2170  1.7812
19849SOL     OW60987   7.250   3.738  12.038 -0.8485 -0.3983 -0.0090
19849SOL    HW160988   7.230   3.825  12.004 -0.7957  0.7947  2.7330
19849SOL    HW260989   7.164   3.699  12.055 -0.8981 -0.0387  0.6232
19850SOL     OW60990   2.649   0.310   8.902  0.4353  0.1529  0.1464
19850SOL    HW160991   2.564   0.315   8.947  1.0449  0.6629  1.2784
19850SOL    HW260992   2.632   0.346   8.815 -0.7236 -0.6707  0.0061
19851SOL     OW60993   0.442   3.872   1.137  0.2286 -0.7981 -0.3764
19851SOL    HW160994   0.447   3.794   1.192 -1.1086 -1.2196 -0.8107
19851SOL    HW260995   0.371   3.924   1.176 -0.1767 -0.7184 -1.2021
19852SOL     OW60996   6.210   3.970   0.518  0.0961  0.6379  0.2121
19852SOL    HW160997   6.129   3.949   0.564  1.1057 -1.1322  1.2900
19852SOL    HW260998   6.181   4.013   0.437 -1.8657  0.5793  0.8298
19853SOL     OW60999   1.292   4.657  11.477 -0.4521 -0.3436  0.6798
19853SOL    HW161000   1.224   4.706  11.522  1.2516  3.7000 -0.6150
19853SOL    HW261001   1.359   4.641  11.543 -1.0737 -1.0488  1.1452
19854SOL     OW61002   2.516   7.591   9.841 -0.3026 -0.1041 -0.1985
19854SOL    HW161003   2.522   7.601   9.746  0.8413 -0.4697 -0.1812
19854SOL    HW261004   2.607   7.593   9.871 -0.6683  0.3552  0.9317
19855SOL     OW61005   3.034   0.828   0.077 -0.3647  0.2413  0.3952
19855SOL    HW161006   3.048   0.756   0.138  2.3269  0.9623  0.7520
19855SOL    HW261007   2.949   0.864   0.102 -0.8095 -1.4875  1.5684
19856SOL     OW61008   1.383   5.923  10.347 -0.1999  0.0944  0.1095
19856SOL    HW161009   1.450   5.863  10.313  0.6344  1.2309 -0.3246
19856SOL    HW261010   1.424   5.964  10.423  0.4330  2.2431 -1.2758
19857SOL     OW61011   0.970   1.770   6.338 -0.1521  0.3002  0.0828
19857SOL    HW161012   1.014   1.836   6.285 -1.3903  0.2881 -1.0204
19857SOL    HW261013   1.027   1.757   6.413  0.1564  2.5790  0.3046
19858SOL     OW61014   0.305   3.257   2.826  0.7602 -0.3569  0.1195
19858SOL    HW161015   0.386   3.299   2.859  1.1481 -1.0673  0.0846
19858SOL    HW261016   0.293   3.295   2.739  0.2614  0.8180  0.6746
19859SOL     OW61017   2.196   3.509   8.840  0.6878  0.4763  0.2560
19859SOL    HW161018   2.144   3.475   8.913  0.0974  0.3729 -0.2087
19859SOL    HW261019   2.257   3.570   8.881  1.5918 -0.9286  1.0736
19860SOL     OW61020   3.395   2.266  12.220  0.2582 -0.2728 -0.2072
19860SOL    HW161021   3.453   2.290  12.292 -0.1971  0.2475 -0.0134
19860SOL    HW261022   3.329   2.209  12.260  0.2850 -0.3735 -0.3061
19861SOL     OW61023   0.576   6.938   9.695 -0.1568 -0.9289  0.0139
19861SOL    HW161024   0.583   6.967   9.604 -0.2379 -0.8374  0.0365
19861SOL    HW261025   0.618   7.008   9.746 -0.1570 -0.9556  0.0510
19862SOL     OW61026   3.847   0.923   1.813  0.0748  0.4241 -0.0156
19862SOL    HW161027   3.783   0.921   1.742  0.0800 -1.1605 -0.0176
19862SOL    HW261028   3.797   0.953   1.890 -0.6081 -0.4823 -0.0908
19863SOL     OW61029   5.962   4.219   1.193 -0.2852  0.0429  0.4885
19863SOL    HW161030   6.009   4.286   1.143 -1.4996  0.7805  0.2850
19863SOL    HW261031   5.968   4.140   1.139 -1.6278  0.8423 -0.9124
19864SOL     OW61032   0.853   7.922   0.073 -0.1873 -0.0320  0.0268
19864SOL    HW161033   0.818   7.996   0.024 -3.8469 -0.9899  0.9097
19864SOL    HW261034   0.826   7.938   0.164  1.0037 -1.3264  0.6504
19865SOL     OW61035   0.063   7.615   0.320 -0.0099  0.4377 -0.3747
19865SOL    HW161036   0.041   7.525   0.298 -2.0051  0.6815  0.4431
19865SOL    HW261037   0.019   7.668   0.254  0.1418  0.8749 -0.1324
19866SOL     OW61038   1.694   1.971   7.365  0.0009 -0.1302 -0.0471
19866SOL    HW161039   1.696   1.967   7.270 -0.1670 -1.0567 -0.0250
19866SOL    HW261040   1.605   1.943   7.388 -0.5306  1.7388  0.3257
19867SOL     OW61041   2.991   2.067   0.346 -0.3071  0.1222  0.3044
19867SOL    HW161042   2.940   2.135   0.304 -0.2899  1.7443  2.6771
19867SOL    HW261043   3.012   2.103   0.433 -0.5652 -3.0343  1.8161
19868SOL     OW61044   0.662   4.856   1.774 -0.5978  0.0734  0.1542
19868SOL    HW161045   0.612   4.826   1.697  1.2948 -0.6281 -0.8748
19868SOL    HW261046   0.684   4.947   1.753  0.9836 -0.4840 -0.7822
19869SOL     OW61047   4.333   5.830   9.101 -0.3398  0.1625  0.9237
19869SOL    HW161048   4.413   5.799   9.144 -0.1973  0.8168  1.1297
19869SOL    HW261049   4.307   5.757   9.045 -0.0342 -0.3637  1.4482
19870SOL     OW61050   7.462   2.697  10.883 -0.3627 -0.0168 -0.4451
19870SOL    HW161051   7.376   2.737  10.898 -0.5322 -0.2025 -0.8952
19870SOL    HW261052   7.448   2.637  10.810  0.0411 -0.4091 -0.2029
19871SOL     OW61053   4.032   5.409  10.943  0.0437  0.0237  0.4633
19871SOL    HW161054   4.043   5.439  10.853 -0.1828  0.8136  0.6919
19871SOL    HW261055   3.979   5.476  10.985  0.8733  0.1112  1.4166
19872SOL     OW61056   2.492   3.916   4.185  0.6648 -0.0482 -0.1756
19872SOL    HW161057   2.582   3.885   4.190  0.9896  1.0129  1.0436
19872SOL    HW261058   2.443   3.858   4.244  0.6303 -0.3583 -0.5096
19873SOL     OW61059   7.118   5.095   2.700 -0.4516  0.6116 -0.5588
19873SOL    HW161060   7.156   5.165   2.754 -1.8864 -0.0931  1.4747
19873SOL    HW261061   7.094   5.138   2.619  0.8854  1.9472 -0.2899
19874SOL     OW61062   7.267   4.080   9.711  0.0119  0.1062  0.2123
19874SOL    HW161063   7.192   4.118   9.757 -1.5628 -0.8345 -1.4302
19874SOL    HW261064   7.258   3.986   9.725 -0.6838 -0.2357 -2.1294
19875SOL     OW61065   7.333   5.407   6.271  0.2606 -0.4774  0.0284
19875SOL    HW161066   7.302   5.492   6.303  1.7805 -0.3183  1.1817
19875SOL    HW261067   7.338   5.418   6.176  1.4586  1.1165  0.2299
19876SOL     OW61068   3.411   2.789   3.592  0.1871  0.0663 -0.0457
19876SOL    HW161069   3.450   2.794   3.505 -2.5713  3.7947 -1.3518
19876SOL    HW261070   3.471   2.838   3.648  1.0904 -0.8414 -0.1854
19877SOL     OW61071   3.927   0.876  12.227  0.0743 -0.2867  0.1776
19877SOL    HW161072   3.854   0.826  12.189 -0.4484  0.1217  0.6253
19877SOL    HW261073   3.926   0.959  12.178  0.6049 -0.5031 -0.2057
19878SOL     OW61074   3.225   0.850   3.027  0.3121  0.4075 -0.7193
19878SOL    HW161075   3.304   0.873   2.978 -0.4896  0.8219 -1.8576
19878SOL    HW261076   3.177   0.932   3.036  0.3668  0.3113  0.6656
19879SOL     OW61077   1.411   4.223   6.397 -0.2027 -0.2411 -0.7555
19879SOL    HW161078   1.343   4.156   6.406 -0.5905  0.2885  0.5053
19879SOL    HW261079   1.363   4.301   6.370 -0.0056 -0.0334 -0.5089
19880SOL     OW61080   7.671   5.540   8.307 -0.4032 -0.8114 -0.5936
19880SOL    HW161081   7.653   5.507   8.395  0.8507 -1.6372 -0.6125
19880SOL    HW261082   7.767   5.540   8.301 -0.2363  3.1135 -0.5243
19881SOL     OW61083   3.375   4.417   9.576 -0.4031 -0.3825 -0.0207
19881SOL    HW161084   3.347   4.457   9.494 -0.3552  0.2379  0.2577
19881SOL    HW261085   3.411   4.332   9.551 -2.5761 -1.2409 -0.3982
19882SOL     OW61086   4.775   3.591   2.559 -0.0459 -0.0780  0.0539
19882SOL    HW161087   4.823   3.673   2.556 -1.5762  0.8180 -0.7489
19882SOL    HW261088   4.776   3.567   2.652 -1.2844  1.9190  0.6444
19883SOL     OW61089   1.474   2.257   7.682 -0.1438 -0.0568  0.1732
19883SOL    HW161090   1.390   2.217   7.660  0.5051 -1.6902  0.4642
19883SOL    HW261091   1.497   2.310   7.606 -0.4828 -1.2451 -0.7879
19884SOL     OW61092   4.751   4.037  10.241 -0.1483 -0.2351  0.1184
19884SOL    HW161093   4.729   4.062  10.151 -1.3566 -1.7427 -0.0462
19884SOL    HW261094   4.760   4.120  10.287 -1.1890  0.5511 -1.0186
19885SOL     OW61095   1.968   0.891  12.042 -0.0241 -0.1020  0.1509
19885SOL    HW161096   1.967   0.845  12.126 -2.2997  2.3571  1.6384
19885SOL    HW261097   1.961   0.823  11.977  2.1082 -2.1486  1.8611
19886SOL     OW61098   6.684   6.164  12.228 -0.6122  0.1589 -0.1939
19886SOL    HW161099   6.761   6.217  12.247 -0.7380  0.3680 -0.2660
19886SOL    HW261100   6.711   6.075  12.250  0.2582 -0.0420 -1.8744
19887SOL     OW61101   5.889   3.105   9.966  0.1813  0.3304  0.1186
19887SOL    HW161102   5.952   3.168   9.932  0.1296 -0.0754 -0.7577
19887SOL    HW261103   5.853   3.062   9.888  0.5584 -1.1064  0.6895
19888SOL     OW61104   2.214   5.681   3.177 -0.1577 -0.1675  0.5386
19888SOL    HW161105   2.147   5.736   3.218  0.3349  0.4365  0.5429
19888SOL    HW261106   2.195   5.687   3.083 -0.8507 -0.9817  0.6148
19889SOL     OW61107   6.890   6.208   4.600  0.4060 -0.3528  0.5013
19889SOL    HW161108   6.928   6.284   4.644  0.4462 -0.0368 -0.0691
19889SOL    HW261109   6.920   6.133   4.652  0.8479 -0.0264  0.7294
19890SOL     OW61110   4.908   6.831   3.555 -0.3579  0.0786  0.2845
19890SOL    HW161111   4.950   6.752   3.589 -1.1833 -0.1588  0.7983
19890SOL    HW261112   4.840   6.798   3.497 -1.0430  0.3819  0.8946
19891SOL     OW61113   0.409   5.455  11.199 -0.2730  0.0954 -0.5013
19891SOL    HW161114   0.462   5.477  11.122 -0.1556 -1.5495 -0.9304
19891SOL    HW261115   0.426   5.527  11.261  0.5427  0.8478 -1.5528
19892SOL     OW61116   1.283   1.913   1.810 -0.0113 -0.1129  0.2931
19892SOL    HW161117   1.259   1.840   1.753 -1.4219  0.4562  0.1115
19892SOL    HW261118   1.362   1.883   1.855 -0.8958 -2.0286  0.7079
19893SOL     OW61119   0.158   0.971   8.959  0.3357  0.7181  0.4032
19893SOL    HW161120   0.075   1.015   8.976 -0.6290 -1.1827  0.8663
19893SOL    HW261121   0.183   0.933   9.043  0.7153 -0.2529 -0.1266
19894SOL     OW61122   3.807   3.421   1.481  0.5194 -0.1585  0.5307
19894SOL    HW161123   3.846   3.507   1.462  1.5518 -0.1824  2.2563
19894SOL    HW261124   3.721   3.442   1.518  0.2847  0.0591 -0.1156
19895SOL     OW61125   4.329   5.675  10.247  0.1953 -0.4127  0.3407
19895SOL    HW161126   4.327   5.588  10.208 -0.1394 -1.3244  2.2576
19895SOL    HW261127   4.251   5.719  10.211  0.1970 -1.0041 -0.4081
19896SOL     OW61128   6.787   5.416   9.311 -0.0673 -0.2257  0.3305
19896SOL    HW161129   6.706   5.403   9.360  0.3558 -1.3211  0.7925
19896SOL    HW261130   6.855   5.421   9.379  0.1629  1.6851  0.0091
19897SOL     OW61131   6.809   5.295   5.506  0.2410 -0.1782 -0.4071
19897SOL    HW161132   6.847   5.220   5.551 -2.0482 -0.6546  0.8675
19897SOL    HW261133   6.727   5.262   5.470  0.0391  1.2851 -1.3859
19898SOL     OW61134   5.672   7.592   9.844 -0.2912  0.0300  0.2454
19898SOL    HW161135   5.605   7.613   9.780 -2.2065  1.5714  2.5835
19898SOL    HW261136   5.731   7.668   9.843 -1.9558  1.4471  2.1964
19899SOL     OW61137   3.501   1.417   8.291 -0.0561 -0.0805 -0.2309
19899SOL    HW161138   3.527   1.506   8.317  1.2886 -0.2064 -1.0213
19899SOL    HW261139   3.580   1.380   8.252 -0.8054 -1.3807 -0.5642
19900SOL     OW61140   7.788   7.780   9.538 -0.5547  0.0451  0.0752
19900SOL    HW161141   7.716   7.809   9.481 -1.0018 -0.3299  0.4387
19900SOL    HW261142   7.745   7.755   9.620  0.1391  1.0277  0.7614
19901SOL     OW61143   5.593   3.652  11.421 -0.3344 -0.1242  0.0924
19901SOL    HW161144   5.660   3.697  11.370 -1.0853  1.0330  0.1005
19901SOL    HW261145   5.633   3.568  11.444  1.3929  0.8501  0.7520
19902SOL     OW61146   6.348   7.504   1.248  0.1142  0.6263  0.0518
19902SOL    HW161147   6.381   7.539   1.331 -0.0198  1.5687 -0.2838
19902SOL    HW261148   6.368   7.571   1.183 -1.0275  0.5262 -0.4424
19903SOL     OW61149   3.350   2.915   6.939 -0.4842 -0.5296  0.4110
19903SOL    HW161150   3.421   2.900   7.002 -0.5894 -1.0607  0.4088
19903SOL    HW261151   3.291   2.840   6.950 -1.0599 -0.0824  0.4267
19904SOL     OW61152   6.224   1.611   4.516  0.7814 -0.3912 -0.4112
19904SOL    HW161153   6.254   1.616   4.426 -0.2757  1.3255 -0.7052
19904SOL    HW261154   6.303   1.619   4.569  1.5385 -2.4733 -1.1402
19905SOL     OW61155   6.625   2.032   5.592 -0.2505 -0.3948 -0.1074
19905SOL    HW161156   6.561   2.038   5.662  0.1374 -1.5444  0.3774
19905SOL    HW261157   6.655   2.122   5.578  1.1474 -0.3468  2.6211
19906SOL     OW61158   7.262   0.970   3.496 -0.8617  0.2622  0.4895
19906SOL    HW161159   7.191   0.906   3.500 -1.7251  1.1691  0.2151
19906SOL    HW261160   7.294   0.976   3.586 -1.5108  0.2344  0.7285
19907SOL     OW61161   7.202   4.785   3.536 -0.4837 -0.4172  0.1911
19907SOL    HW161162   7.275   4.731   3.505  0.2994  0.7384 -0.0511
19907SOL    HW261163   7.197   4.768   3.630 -0.7092 -1.4189  0.0148
19908SOL     OW61164   6.760   7.565   7.171  0.3958  0.2698  0.0560
19908SOL    HW161165   6.833   7.606   7.127  0.6060 -0.9082 -0.7341
19908SOL    HW261166   6.790   7.476   7.190  0.2417  0.6328  2.4091
19909SOL     OW61167   4.866   3.452   1.192 -0.6762  0.4505  0.2990
19909SOL    HW161168   4.931   3.398   1.236 -0.7391  1.0443  1.1564
19909SOL    HW261169   4.813   3.390   1.141 -0.9011 -0.3363  1.4541
19910SOL     OW61170   1.372   5.586  11.640  0.2930 -0.4509 -0.1404
19910SOL    HW161171   1.277   5.578  11.637  0.1573  0.5886  0.5325
19910SOL    HW261172   1.402   5.549  11.558 -0.7550 -0.1496 -0.6835
19911SOL     OW61173   6.602   3.489   6.274  0.1304 -0.7597 -0.0551
19911SOL    HW161174   6.508   3.502   6.265  0.1058  0.6506  1.6675
19911SOL    HW261175   6.611   3.430   6.349  0.6067 -2.7210 -1.5672
19912SOL     OW61176   5.824   1.644   0.271 -0.2571  0.6431 -0.2203
19912SOL    HW161177   5.846   1.719   0.326  0.0758 -0.0085  0.5617
19912SOL    HW261178   5.887   1.649   0.198  0.0934  0.8326  0.0930
19913SOL     OW61179   1.508   4.055   1.127  0.4143 -0.3433 -0.1823
19913SOL    HW161180   1.557   4.012   1.057  0.0472  0.3690 -0.8873
19913SOL    HW261181   1.416   4.043   1.103  0.2998  0.4542 -0.1543
19914SOL     OW61182   7.867   3.066  10.324  0.1166 -0.1635  0.3765
19914SOL    HW161183   7.773   3.051  10.317  0.3477 -1.5813 -0.0502
19914SOL    HW261184   7.906   2.979  10.314  1.4729  0.3967  0.5598
19915SOL     OW61185   4.839   7.720  12.414 -0.2890 -0.1474  0.7524
19915SOL    HW161186   4.922   7.760  12.438  0.4218 -0.3304 -1.1971
19915SOL    HW261187   4.776   7.792  12.413  0.2930  0.3691  0.3275
19916SOL     OW61188   6.248   2.574   3.629 -0.0835 -0.1048  0.3369
19916SOL    HW161189   6.229   2.537   3.715 -1.0944 -0.2689  0.0568
19916SOL    HW261190   6.166   2.617   3.603  0.4135  0.5082 -0.2606
19917SOL     OW61191   1.065   5.395   4.362 -0.1491 -0.2071  0.0902
19917SOL    HW161192   1.033   5.436   4.281  1.1181  1.9888  0.6176
19917SOL    HW261193   1.158   5.417   4.365  0.4710 -2.5753  0.8455
19918SOL     OW61194   2.977   6.715   9.580 -0.1950  0.4179  0.0119
19918SOL    HW161195   3.040   6.775   9.539  1.6568  0.7097  3.0061
19918SOL    HW261196   2.912   6.773   9.621 -0.8415  0.1856 -0.6502
19919SOL     OW61197   2.623   3.845   1.376  0.3986  0.7436  0.2745
19919SOL    HW161198   2.697   3.903   1.359  0.4634  0.2839 -1.1234
19919SOL    HW261199   2.557   3.871   1.311  0.4580 -0.7839 -0.4262
19920SOL     OW61200   4.054   4.987   2.563 -0.7078  0.0938  0.1429
19920SOL    HW161201   4.007   5.052   2.615 -0.4977 -0.7271  1.3876
19920SOL    HW261202   4.123   5.037   2.518  1.3902  0.3818  3.3739
19921SOL     OW61203   3.598   3.858   1.783 -0.2316 -0.0938  0.7666
19921SOL    HW161204   3.580   3.782   1.839 -0.3242  0.3970  1.4171
19921SOL    HW261205   3.628   3.820   1.701 -0.7129 -0.8478  0.9220
19922SOL     OW61206   2.995   5.631   5.505 -0.2040 -0.2910 -0.1578
19922SOL    HW161207   2.918   5.578   5.483 -0.5838 -0.0066  0.4456
19922SOL    HW261208   2.967   5.721   5.487  0.2477 -0.2387 -0.6409
19923SOL     OW61209   1.573   7.425   2.601 -0.4792  0.2358 -0.0968
19923SOL    HW161210   1.598   7.417   2.509 -0.0394  0.4480  0.0032
19923SOL    HW261211   1.616   7.351   2.644  0.3510  0.8401  0.1480
19924SOL     OW61212   1.751   6.344   0.349 -0.5252 -0.9464  0.5781
19924SOL    HW161213   1.723   6.433   0.373 -1.3013 -0.0051 -3.1928
19924SOL    HW261214   1.687   6.287   0.391 -2.0099  0.5474  0.4514
19925SOL     OW61215   2.911   7.642   6.234 -0.3752  0.0984  0.6096
19925SOL    HW161216   2.925   7.548   6.227  1.9208  0.3929  0.6082
19925SOL    HW261217   2.880   7.668   6.147  2.7710 -0.1380 -0.7042
19926SOL     OW61218   4.726   5.921   3.287  0.4725 -0.0034 -0.3992
19926SOL    HW161219   4.698   5.829   3.284  0.9770 -0.3576  2.4726
19926SOL    HW261220   4.657   5.969   3.240 -0.1227 -1.7776 -1.4159
19927SOL     OW61221   7.651   3.328   0.692  0.0431 -0.1227  0.6673
19927SOL    HW161222   7.714   3.284   0.636  0.7108  0.6047  0.8275
19927SOL    HW261223   7.566   3.311   0.651  0.6101  1.4236 -1.3067
19928SOL     OW61224   1.265   4.214   7.633 -0.1856  0.1301 -0.3097
19928SOL    HW161225   1.295   4.155   7.565  0.3006  0.2393 -0.1928
19928SOL    HW261226   1.241   4.294   7.586 -4.2762 -1.2417 -0.9835
19929SOL     OW61227   7.873   6.264   3.686 -0.2941 -0.5359  0.7118
19929SOL    HW161228   7.949   6.250   3.630 -0.3206 -0.3246  0.6231
19929SOL    HW261229   7.910   6.297   3.768 -0.2186 -1.2795  0.9767
19930SOL     OW61230   3.074   3.316   2.005  0.1232  0.5288  0.0278
19930SOL    HW161231   3.104   3.374   1.935 -0.5165  0.0742 -0.6515
19930SOL    HW261232   2.989   3.284   1.974  0.8141 -1.4149 -0.0123
19931SOL     OW61233   7.278   4.647   0.261  0.5021  0.1423 -0.3660
19931SOL    HW161234   7.259   4.635   0.354  0.9144 -0.4737 -0.3543
19931SOL    HW261235   7.192   4.652   0.219  0.2418 -2.4814 -0.3061
19932SOL     OW61236   2.344   5.819   9.030  0.5906  0.0205  0.0018
19932SOL    HW161237   2.374   5.730   9.012  1.5729  0.3795 -0.2043
19932SOL    HW261238   2.264   5.808   9.081  0.4384 -0.9813 -0.4382
19933SOL     OW61239   7.335   5.204   0.855  0.1567 -0.7670 -0.2533
19933SOL    HW161240   7.426   5.223   0.832 -0.4164  0.9984 -1.2370
19933SOL    HW261241   7.288   5.286   0.838 -1.3709 -1.1366  1.7247
19934SOL     OW61242   1.121   6.718  12.244  0.0880 -0.0493 -0.4943
19934SOL    HW161243   1.079   6.712  12.158  0.1308  1.2043 -0.6143
19934SOL    HW261244   1.079   6.793  12.286  0.7144 -0.0944  0.2252
19935SOL     OW61245   7.896   5.412   3.111 -0.1710  0.3434  0.1660
19935SOL    HW161246   7.832   5.480   3.131 -0.1381  0.2739  0.5232
19935SOL    HW261247   7.850   5.352   3.053 -0.9290 -0.4881  1.5526
19936SOL     OW61248   3.647   1.773  10.236  0.3269  0.3689  0.1605
19936SOL    HW161249   3.683   1.765  10.325  0.6327 -3.3737 -0.1357
19936SOL    HW261250   3.553   1.784  10.249  0.4399  0.4367  0.9554
19937SOL     OW61251   0.266   7.862   2.766  0.0235 -0.1863 -0.3739
19937SOL    HW161252   0.315   7.817   2.834  0.8083  0.7871 -0.2764
19937SOL    HW261253   0.233   7.942   2.807 -1.8657 -0.9146 -0.3740
19938SOL     OW61254   7.692   3.198   9.509  0.2761  0.5342  0.2754
19938SOL    HW161255   7.637   3.167   9.438 -2.0247  1.9156  1.3446
19938SOL    HW261256   7.759   3.252   9.465 -0.0261 -0.0658 -0.9598
19939SOL     OW61257   3.782   4.261   1.668 -0.0821 -0.3674 -0.0352
19939SOL    HW161258   3.765   4.278   1.575 -1.5390  0.7216  0.3785
19939SOL    HW261259   3.873   4.286   1.681  0.1174 -0.4708 -1.1690
19940SOL     OW61260   1.988   1.380   8.196 -0.1027  0.1197  0.1646
19940SOL    HW161261   2.043   1.317   8.243  2.5871  0.5131 -2.1724
19940SOL    HW261262   1.941   1.327   8.132  1.6415  0.3209 -1.3443
19941SOL     OW61263   0.106   7.748   4.771 -0.3501 -0.6807 -0.6744
19941SOL    HW161264   0.104   7.743   4.676 -0.9350  1.6713 -0.8380
19941SOL    HW261265   0.065   7.831   4.792  1.6980 -0.1015  1.5259
19942SOL     OW61266   0.124   2.283   5.810 -0.1363 -0.5980  0.2768
19942SOL    HW161267   0.156   2.202   5.849 -0.3747 -0.5591  0.5623
19942SOL    HW261268   0.097   2.336   5.885  0.6741  0.0326  0.1337
19943SOL     OW61269   2.858   2.012   7.075 -0.8016  0.5727 -0.3074
19943SOL    HW161270   2.822   2.053   7.153 -1.8629  0.3463 -0.6553
19943SOL    HW261271   2.948   1.990   7.098 -0.5380  2.1347  0.2315
19944SOL     OW61272   7.661   6.726  10.416 -0.1899 -0.9162 -0.3364
19944SOL    HW161273   7.629   6.647  10.373 -0.1719 -0.1019 -1.9254
19944SOL    HW261274   7.729   6.759  10.357  0.1996 -0.0248  0.5872
19945SOL     OW61275   6.747   2.755   1.028 -0.0678 -0.0736 -0.1854
19945SOL    HW161276   6.742   2.726   1.120 -0.3702  1.4468  0.3041
19945SOL    HW261277   6.740   2.850   1.033 -1.6989 -0.0518 -1.9192
19946SOL     OW61278   6.216   3.522   1.266 -0.3621 -0.1323  0.4814
19946SOL    HW161279   6.137   3.564   1.298  0.1157  1.2654 -0.0846
19946SOL    HW261280   6.227   3.444   1.321 -1.9022 -0.1374  0.8074
19947SOL     OW61281   0.601   6.039   1.798  0.1844 -0.2397 -0.3347
19947SOL    HW161282   0.508   6.034   1.774 -0.0465 -0.1354  0.4914
19947SOL    HW261283   0.641   6.092   1.729 -0.5767  0.5977 -0.1569
19948SOL     OW61284   1.321   3.866   6.510 -0.0533 -0.1169  0.1916
19948SOL    HW161285   1.273   3.863   6.593 -1.7012  1.0595 -0.6681
19948SOL    HW261286   1.326   3.775   6.481 -2.5225 -0.2232 -0.0719
19949SOL     OW61287   5.573   3.551   9.636  0.3866 -0.4563 -0.0542
19949SOL    HW161288   5.661   3.561   9.672  0.7735 -0.8877 -0.8558
19949SOL    HW261289   5.569   3.614   9.564  0.0202 -0.3894  0.0248
19950SOL     OW61290   6.965   3.275   7.424  0.1979  0.4342  0.3466
19950SOL    HW161291   6.991   3.366   7.437  0.2712  0.6338 -1.0062
19950SOL    HW261292   6.893   3.280   7.361 -1.2212 -0.3116  1.8126
19951SOL     OW61293   7.969   0.287   3.978 -0.0368  0.1244  0.0524
19951SOL    HW161294   7.931   0.200   3.996  0.4202  0.0200  0.5472
19951SOL    HW261295   7.963   0.296   3.883 -1.8169  0.3512  0.1435
19952SOL     OW61296   4.437   2.826  10.137 -0.1426 -0.2750 -0.9187
19952SOL    HW161297   4.445   2.824  10.042  1.8242 -3.0428 -0.7808
19952SOL    HW261298   4.526   2.838  10.169 -0.7908  0.7859  0.6386
19953SOL     OW61299   6.324   7.521   7.643 -0.7858  0.4244 -0.2433
19953SOL    HW161300   6.359   7.497   7.558 -1.6838 -0.8568 -0.2869
19953SOL    HW261301   6.233   7.547   7.626 -1.3041 -0.8388  0.4101
19954SOL     OW61302   1.225   5.255   9.349  0.1446 -0.9830  0.6594
19954SOL    HW161303   1.210   5.349   9.354 -1.8280 -1.2241  0.1147
19954SOL    HW261304   1.249   5.230   9.438  1.6639  0.1442  0.6074
19955SOL     OW61305   0.425   6.416   7.254 -0.5818  0.2246 -0.6227
19955SOL    HW161306   0.411   6.383   7.165 -0.8537  0.1547 -0.5569
19955SOL    HW261307   0.417   6.511   7.246 -0.9922  0.1947 -0.6094
19956SOL     OW61308   5.578   6.795   4.179 -0.2863  0.3423 -0.3319
19956SOL    HW161309   5.635   6.828   4.109  0.0247 -2.9181 -1.8371
19956SOL    HW261310   5.639   6.768   4.248 -0.3939  1.1922  0.0995
19957SOL     OW61311   1.015   7.873   1.808  0.6518  0.1512  0.2254
19957SOL    HW161312   0.946   7.857   1.873  1.6019  2.1192  1.8454
19957SOL    HW261313   1.071   7.796   1.813  1.0283  0.5131  2.2228
19958SOL     OW61314   6.801   0.440   9.150  0.3032  0.1267  0.5403
19958SOL    HW161315   6.763   0.482   9.073  0.6520 -0.9991 -0.2706
19958SOL    HW261316   6.878   0.395   9.117  0.5461 -0.2449  1.5810
19959SOL     OW61317   4.603   5.628   0.787  0.3951 -0.0899 -0.6374
19959SOL    HW161318   4.530   5.610   0.728  0.5231 -0.3937 -0.7058
19959SOL    HW261319   4.611   5.724   0.787 -0.7834  0.0480  0.3136
19960SOL     OW61320   1.868   0.629   8.104  0.1723  0.0616 -0.2066
19960SOL    HW161321   1.879   0.667   8.016 -2.1675 -0.8953 -1.0044
19960SOL    HW261322   1.828   0.700   8.155 -1.3004 -0.2939 -0.8178
19961SOL     OW61323   2.898   2.454   4.089 -0.0348  0.0873 -0.2787
19961SOL    HW161324   2.803   2.457   4.085 -0.1323 -1.9513 -0.6639
19961SOL    HW261325   2.926   2.432   4.000  0.7198 -0.3390  0.0503
19962SOL     OW61326   0.308   6.570   2.602  0.4250  1.0073 -0.2683
19962SOL    HW161327   0.368   6.500   2.629 -1.5588 -0.9481 -0.6858
19962SOL    HW261328   0.222   6.542   2.633 -0.2327  4.2049  1.1853
19963SOL     OW61329   2.865   7.147   7.847  0.1778  0.3449 -0.3767
19963SOL    HW161330   2.776   7.173   7.821  0.1045  0.8799  0.3867
19963SOL    HW261331   2.922   7.201   7.793  0.0302  0.9115  0.0303
19964SOL     OW61332   4.866   1.515  11.516  0.1739  0.9270 -0.4856
19964SOL    HW161333   4.869   1.611  11.523 -1.1404  0.9298  0.4946
19964SOL    HW261334   4.779   1.497  11.478  0.1763  0.1025 -0.1198
19965SOL     OW61335   0.867   3.259  10.184 -0.5010 -0.4534  0.1772
19965SOL    HW161336   0.818   3.341  10.192  0.2755 -0.0240  0.7074
19965SOL    HW261337   0.801   3.194  10.160 -1.4719 -0.0239  1.5041
19966SOL     OW61338   6.367   0.065   2.691 -0.0060  0.1054 -0.0564
19966SOL    HW161339   6.387  -0.022   2.658  0.7657 -0.7585  2.4036
19966SOL    HW261340   6.319   0.049   2.773  2.1184  1.8551  1.6769
19967SOL     OW61341   4.120   5.431  10.398  0.0448 -0.1371  0.1843
19967SOL    HW161342   4.088   5.478  10.321  2.1628  0.0725 -0.6313
19967SOL    HW261343   4.163   5.354  10.363  2.3487  0.7071  1.0093
19968SOL     OW61344   6.992   7.958   5.478  0.1425  0.0118  0.1689
19968SOL    HW161345   7.022   8.045   5.452  0.3714  0.7551  2.6428
19968SOL    HW261346   7.071   7.903   5.472  0.2302  0.1953 -0.4441
19969SOL     OW61347   6.107   5.422   0.896 -0.1328 -0.3121 -0.0943
19969SOL    HW161348   6.030   5.478   0.882 -1.4444 -1.5614  1.6347
19969SOL    HW261349   6.074   5.333   0.881  1.7361 -0.7298 -2.1343
19970SOL     OW61350   6.161   0.269   8.676 -0.3451 -0.0685 -0.5287
19970SOL    HW161351   6.108   0.239   8.603  1.5762  0.4359 -2.2134
19970SOL    HW261352   6.244   0.295   8.637  0.7839  0.1886  1.8494
19971SOL     OW61353   3.169   7.666   4.189  0.5158  0.2895 -0.1039
19971SOL    HW161354   3.211   7.590   4.228 -1.9484 -0.9861  0.2394
19971SOL    HW261355   3.100   7.630   4.134 -0.9703  2.2675  0.3557
19972SOL     OW61356   6.468   5.386   7.222  0.5662 -0.1342 -0.2811
19972SOL    HW161357   6.439   5.406   7.311  0.6337 -0.0858 -0.2694
19972SOL    HW261358   6.389   5.397   7.168 -0.0971 -2.5853  0.0867
19973SOL     OW61359   6.468   4.953   8.544  0.5395 -1.0189 -0.3173
19973SOL    HW161360   6.513   4.884   8.592  0.7270 -1.2175 -0.7723
19973SOL    HW261361   6.476   4.927   8.452 -0.3530 -0.9653 -0.4140
19974SOL     OW61362   3.427   1.775  10.756 -0.3442  0.2717 -1.0924
19974SOL    HW161363   3.474   1.855  10.781  0.1312 -1.0668  3.0503
19974SOL    HW261364   3.338   1.789  10.788 -0.2300 -0.8357 -0.2177
19975SOL     OW61365   3.054   3.485   0.458  0.2358 -0.9324  0.1570
19975SOL    HW161366   3.043   3.565   0.508 -1.0586 -1.9530  1.5655
19975SOL    HW261367   2.966   3.460   0.431  0.7547 -1.1838 -1.4380
19976SOL     OW61368   5.523   6.707   7.529  0.0335  0.0511 -0.1994
19976SOL    HW161369   5.592   6.749   7.581 -0.2564  0.2211  0.0487
19976SOL    HW261370   5.570   6.647   7.472  0.6241  1.8732 -1.7314
19977SOL     OW61371   5.363   3.707   0.628  0.7944 -0.2598 -0.5716
19977SOL    HW161372   5.327   3.675   0.545 -0.8452  1.1020 -0.4364
19977SOL    HW261373   5.456   3.686   0.624  0.6937 -0.4708 -2.6316
19978SOL     OW61374   1.550   3.788  10.643  0.3713  0.1615  0.1119
19978SOL    HW161375   1.591   3.705  10.617 -1.1641 -0.3596 -0.7480
19978SOL    HW261376   1.600   3.816  10.721  0.2644 -2.0927  1.0660
19979SOL     OW61377   7.645   0.241  10.453  0.3382 -0.0630 -0.1145
19979SOL    HW161378   7.716   0.200  10.503  0.8811 -0.1194 -0.8951
19979SOL    HW261379   7.592   0.287  10.518  0.0906 -1.4519  0.7092
19980SOL     OW61380   3.428   1.390   9.200 -0.6001 -0.3660  0.3875
19980SOL    HW161381   3.345   1.375   9.154 -0.1129  1.0856 -1.0943
19980SOL    HW261382   3.468   1.304   9.208 -0.3832 -0.6575 -2.6810
19981SOL     OW61383   3.699   7.471  10.483 -0.4642 -0.1529  0.6666
19981SOL    HW161384   3.634   7.431  10.426 -0.4790  1.2186 -0.3435
19981SOL    HW261385   3.670   7.450  10.572 -1.3433 -0.9757  0.1955
19982SOL     OW61386   2.152   4.941   1.241 -0.1161  0.0101 -0.0809
19982SOL    HW161387   2.066   4.965   1.277  0.0001 -0.8883  0.8580
19982SOL    HW261388   2.145   4.961   1.148 -1.3083  0.0792  0.0011
19983SOL     OW61389   1.564   4.003   6.511  0.5542 -0.6948  0.3959
19983SOL    HW161390   1.587   4.004   6.418 -0.0698 -0.9837  0.2379
19983SOL    HW261391   1.483   3.952   6.516 -0.7651  1.3056  0.7831
19984SOL     OW61392   4.378   4.418   1.320  0.1795 -0.7109 -0.4857
19984SOL    HW161393   4.451   4.457   1.272 -0.3372  2.3304  0.9612
19984SOL    HW261394   4.399   4.433   1.412 -1.5514 -1.1358  0.0106
19985SOL     OW61395   7.282   5.091   3.866  0.2824 -0.2827  0.3114
19985SOL    HW161396   7.369   5.122   3.891  0.1173  0.5038 -0.0783
19985SOL    HW261397   7.280   5.100   3.771 -0.7172  1.0027  0.4371
19986SOL     OW61398   7.824   7.610   7.436 -0.0796 -0.3511  0.0989
19986SOL    HW161399   7.740   7.592   7.479  0.0677  1.5714  1.3042
19986SOL    HW261400   7.809   7.588   7.344 -1.3863 -1.5995  0.5647
19987SOL     OW61401   0.966   4.586   1.665 -0.0267  0.0389  0.0371
19987SOL    HW161402   1.050   4.631   1.673 -0.5994  1.0307  0.5987
19987SOL    HW261403   0.920   4.604   1.747 -1.4180  0.8263 -0.8707
19988SOL     OW61404   4.277   0.723  11.526  0.1285 -0.2759 -0.8387
19988SOL    HW161405   4.204   0.777  11.556  0.6400 -0.2817  0.4389
19988SOL    HW261406   4.238   0.667  11.459 -1.1191 -0.4705  0.0142
19989SOL     OW61407   3.255   0.761  10.907  0.4144 -0.5582 -0.1262
19989SOL    HW161408   3.225   0.827  10.845  1.3384 -0.3459 -0.3566
19989SOL    HW261409   3.332   0.722  10.866  1.7514  0.3802  1.3686
19990SOL     OW61410   4.300   0.718   5.471 -0.0144 -0.4735  0.1183
19990SOL    HW161411   4.263   0.667   5.398 -0.8778  1.5471 -0.9410
19990SOL    HW261412   4.394   0.713   5.458  0.0649 -3.4372  1.2467
19991SOL     OW61413   7.361   2.673   9.543  0.0404 -0.0189  0.0079
19991SOL    HW161414   7.388   2.725   9.467  1.8331 -0.8013  0.0459
19991SOL    HW261415   7.349   2.584   9.508  0.2387 -0.2494  0.5149
19992SOL     OW61416   4.040   5.825   9.058  0.5390 -0.5100 -0.6907
19992SOL    HW161417   4.019   5.752   9.000  0.7205 -0.4185 -0.8739
19992SOL    HW261418   4.129   5.808   9.087  0.4586 -0.5394 -0.4617
19993SOL     OW61419   3.264   4.734   5.288 -0.3486  0.2678  0.0570
19993SOL    HW161420   3.264   4.701   5.378 -1.1189 -2.7547 -0.9037
19993SOL    HW261421   3.182   4.700   5.251  0.2393  0.8895 -1.9364
19994SOL     OW61422   0.564   7.048   1.260  0.3112  0.6972 -0.4243
19994SOL    HW161423   0.641   7.009   1.218  0.6261  0.9071 -0.0540
19994SOL    HW261424   0.583   7.043   1.353 -0.6067 -0.2305 -0.2619
19995SOL     OW61425   4.015   4.977  12.231  0.0005 -0.1847 -0.3256
19995SOL    HW161426   4.060   4.900  12.199 -1.0843 -0.6291 -0.8436
19995SOL    HW261427   4.079   5.048  12.225  0.9014 -0.9704 -0.1388
19996SOL     OW61428   2.153   3.402   5.399 -0.0146  0.0431 -0.1805
19996SOL    HW161429   2.060   3.427   5.396  0.1868  0.7736 -0.6533
19996SOL    HW261430   2.187   3.428   5.314  0.6087 -0.2941 -0.0351
19997SOL     OW61431   6.028   1.389   0.085 -0.2691 -0.2099 -0.0550
19997SOL    HW161432   6.009   1.296   0.087 -2.1230  0.1314  0.1002
19997SOL    HW261433   5.977   1.422   0.011 -0.8354  0.9024  0.7974
19998SOL     OW61434   6.428   7.327   6.510 -0.2376  0.5577 -0.0888
19998SOL    HW161435   6.440   7.339   6.604  0.0591 -1.4543  0.1909
19998SOL    HW261436   6.505   7.367   6.471 -0.0756  0.9101  0.5684
19999SOL     OW61437   0.924   6.372   5.042  0.0976  0.3249  0.4798
19999SOL    HW161438   0.985   6.303   5.018 -0.0132  1.0068 -2.0378
19999SOL    HW261439   0.980   6.444   5.073  0.4905  0.4197 -0.4209
20000SOL     OW61440   1.775   3.178   3.764 -0.4373 -0.1296  0.6696
20000SOL    HW161441   1.833   3.188   3.840  0.9111  0.1248 -0.3593
20000SOL    HW261442   1.827   3.209   3.690 -1.4661 -1.0477 -0.4751
20001SOL     OW61443   0.667   4.847  11.285  0.3812  0.3827  0.4104
20001SOL    HW161444   0.582   4.810  11.307  0.6058  0.5286  1.5674
20001SOL    HW261445   0.728   4.808  11.348  1.1778  0.2871 -0.3930
20002SOL     OW61446   6.835   1.847   7.201 -0.0000 -0.5884 -0.1070
20002SOL    HW161447   6.780   1.917   7.238  0.6878 -0.5117  0.8047
20002SOL    HW261448   6.776   1.800   7.142 -0.6811  0.2996 -0.1682
20003SOL     OW61449   6.655   5.988   4.176  0.4710  0.3759  0.1272
20003SOL    HW161450   6.604   6.058   4.217 -1.2964 -1.2924  0.9092
20003SOL    HW261451   6.717   5.961   4.244  0.4883  0.5115  0.1664
20004SOL     OW61452   3.386   0.636   4.758  0.2397 -0.6596 -0.6358
20004SOL    HW161453   3.416   0.551   4.727  1.2211 -0.8074  0.6424
20004SOL    HW261454   3.466   0.683   4.782 -0.3962 -0.2758  0.8956
20005SOL     OW61455   7.320   4.177   7.539 -0.3560 -0.1569  0.0494
20005SOL    HW161456   7.353   4.228   7.613  1.3243 -0.6732 -0.2804
20005SOL    HW261457   7.227   4.196   7.535 -0.1721  1.1409  1.2938
20006SOL     OW61458   0.061   2.952   1.271 -0.7596  0.1487 -0.3824
20006SOL    HW161459   0.038   3.041   1.297 -0.3248  0.6961 -1.7990
20006SOL    HW261460  -0.022   2.909   1.253 -0.9471  0.3840 -0.0783
20007SOL     OW61461   2.706   3.196  12.187  0.4525 -0.1993  0.0826
20007SOL    HW161462   2.760   3.222  12.112  1.2122 -1.1640  0.2688
20007SOL    HW261463   2.768   3.159  12.249 -0.3746 -0.9038  0.5083
20008SOL     OW61464   2.768   6.917   3.948 -0.4500 -0.1441  0.1214
20008SOL    HW161465   2.811   6.848   3.897 -1.1991 -0.4793 -0.0702
20008SOL    HW261466   2.745   6.984   3.883 -0.2829  0.0045  0.2138
20009SOL     OW61467   7.049   7.163   6.945 -0.2015  0.5403  0.2497
20009SOL    HW161468   6.955   7.151   6.930 -0.2763  1.5193 -0.1341
20009SOL    HW261469   7.088   7.077   6.927 -1.0304  0.0985  0.5103
20010SOL     OW61470   3.864   1.463   9.348  0.1390 -0.1959 -0.3647
20010SOL    HW161471   3.899   1.515   9.275  0.1636 -0.3491 -0.4632
20010SOL    HW261472   3.892   1.374   9.328  0.3890 -0.1972 -0.0206
20011SOL     OW61473   2.812   4.603   8.009  0.3259  0.1452 -0.4222
20011SOL    HW161474   2.894   4.649   7.990  1.1229 -0.7889  0.6671
20011SOL    HW261475   2.825   4.516   7.972 -0.8502  0.4954 -1.7273
20012SOL     OW61476   5.284   5.753   7.153  0.1356  0.1140 -0.1375
20012SOL    HW161477   5.296   5.701   7.074 -0.7203 -1.1954  0.5517
20012SOL    HW261478   5.256   5.839   7.121  3.5018  0.9287 -1.4097
20013SOL     OW61479   6.432   0.927  10.653  0.0141 -0.5263 -0.7052
20013SOL    HW161480   6.394   0.862  10.713 -1.2162  1.0748  0.3761
20013SOL    HW261481   6.493   0.977  10.708 -1.3819  1.1842 -0.5818
20014SOL     OW61482   1.930   7.040  11.623  0.0040  1.2997 -0.1766
20014SOL    HW161483   2.022   7.035  11.648 -0.3490  0.5655  1.0571
20014SOL    HW261484   1.928   7.006  11.533  0.4562 -2.6045  1.0996
20015SOL     OW61485   3.585   5.561   0.331 -0.4733 -0.1362 -0.0954
20015SOL    HW161486   3.675   5.591   0.334 -0.7205  0.5742  0.3340
20015SOL    HW261487   3.552   5.591   0.246 -0.1963 -0.7370 -0.4225
20016SOL     OW61488   2.905   7.481   8.957 -0.0245  0.1308 -0.3201
20016SOL    HW161489   2.918   7.472   9.051  1.0739 -0.1235 -0.4911
20016SOL    HW261490   2.912   7.575   8.940 -1.0310  0.2698 -0.0465
20017SOL     OW61491   6.795   2.336   6.581 -0.4019 -0.2408 -0.5881
20017SOL    HW161492   6.867   2.358   6.640 -0.9018  1.5479 -0.5872
20017SOL    HW261493   6.816   2.383   6.500 -2.1107  1.2777 -0.2006
20018SOL     OW61494   1.808   1.875   5.708  0.6461 -0.5676 -0.1701
20018SOL    HW161495   1.802   1.911   5.797 -0.7597 -1.2250  0.0330
20018SOL    HW261496   1.743   1.925   5.658  0.6038 -0.9872 -0.5323
20019SOL     OW61497   6.151   0.657   4.700 -0.4095 -0.3024 -0.3797
20019SOL    HW161498   6.100   0.651   4.780 -0.9910 -1.5294 -0.8288
20019SOL    HW261499   6.100   0.609   4.635  1.1156 -1.2434 -0.9336
20020SOL     OW61500   1.662   0.448   7.858 -0.1454 -0.4368  0.5893
20020SOL    HW161501   1.749   0.440   7.895  0.5814 -0.1224 -0.9815
20020SOL    HW261502   1.662   0.390   7.782 -1.2305 -0.2620  0.4318
20021SOL     OW61503   7.490   3.696   8.494  0.0835  0.1078  0.1412
20021SOL    HW161504   7.526   3.750   8.424 -1.2325  1.8904  0.7580
20021SOL    HW261505   7.564   3.679   8.552  0.2377  2.9370  0.9234
20022SOL     OW61506   6.528   2.441   4.977  0.3824 -0.0997  0.0863
20022SOL    HW161507   6.469   2.516   4.985 -0.5256 -0.7745 -0.1331
20022SOL    HW261508   6.587   2.449   5.051  0.8009  1.2569 -0.3520
20023SOL     OW61509   2.555   6.744   8.779  0.0888 -0.0078 -0.3885
20023SOL    HW161510   2.612   6.783   8.713 -0.9084  2.0792 -0.1037
20023SOL    HW261511   2.598   6.761   8.862 -0.6749  1.1875 -0.2085
20024SOL     OW61512   1.960   4.637   3.620 -0.8121 -0.1304 -0.2480
20024SOL    HW161513   2.012   4.561   3.644 -2.3760 -0.6610  1.7103
20024SOL    HW261514   1.872   4.618   3.654 -1.5523  2.0111 -0.7934
20025SOL     OW61515   6.808   2.477   0.568  0.2029 -0.2286 -0.4804
20025SOL    HW161516   6.725   2.456   0.611 -0.7962  0.8027 -1.7881
20025SOL    HW261517   6.788   2.472   0.475  2.1109 -1.7130 -0.8620
20026SOL     OW61518   7.766   1.866   3.741 -0.2220  0.9069 -0.2405
20026SOL    HW161519   7.693   1.808   3.721  0.1280  0.5531 -0.5330
20026SOL    HW261520   7.790   1.904   3.656  0.2997  0.5710 -0.2498
20027SOL     OW61521   0.426   2.523   8.121 -0.2377  0.4758  0.0157
20027SOL    HW161522   0.367   2.584   8.077 -0.4821  0.6147  0.5237
20027SOL    HW261523   0.514   2.553   8.097 -0.3571 -0.3314 -1.5540
20028SOL     OW61524   4.524   0.695   6.953 -0.2227 -0.2310 -0.3917
20028SOL    HW161525   4.532   0.664   7.043 -0.8987 -1.3408 -0.6879
20028SOL    HW261526   4.438   0.664   6.924  0.9645 -2.1199 -2.2127
20029SOL     OW61527   4.879   2.982   0.028  0.2986  0.0964 -0.3652
20029SOL    HW161528   4.930   2.923   0.084  0.9610  1.6793  0.7558
20029SOL    HW261529   4.795   2.937   0.017  0.8953 -1.2131  0.1406
20030SOL     OW61530   4.760   6.413   2.795 -0.0212 -0.2797  0.2170
20030SOL    HW161531   4.793   6.383   2.711  1.8141  0.2334  0.7125
20030SOL    HW261532   4.803   6.356   2.859  0.5029  0.8883  0.9310
20031SOL     OW61533   2.178   3.103   3.091  0.6227 -0.1730  0.1841
20031SOL    HW161534   2.224   3.121   3.009  1.0326 -1.2982  0.1424
20031SOL    HW261535   2.242   3.057   3.144 -0.2274 -1.1721  0.3862
20032SOL     OW61536   0.096   5.538   5.695 -0.2038  0.0379  0.2331
20032SOL    HW161537   0.103   5.629   5.724  0.8161 -0.2096  0.8052
20032SOL    HW261538   0.035   5.541   5.622 -0.9411  1.0389  0.8653
20033SOL     OW61539   5.840   0.995   4.323 -0.6783  0.0769 -0.1460
20033SOL    HW161540   5.774   1.004   4.391  0.4361  1.2118  0.8443
20033SOL    HW261541   5.886   0.914   4.345  2.7289  2.5605  3.4491
20034SOL     OW61542   4.429   2.717   8.042 -0.6860  0.0965 -0.3914
20034SOL    HW161543   4.346   2.720   8.090  0.2772  2.2414  1.2998
20034SOL    HW261544   4.430   2.799   7.992  1.5052  1.5053  1.7372
20035SOL     OW61545   5.137   3.959   8.872 -0.3906  0.1368  0.2253
20035SOL    HW161546   5.158   3.866   8.865 -1.4250 -0.1543  0.9333
20035SOL    HW261547   5.111   3.972   8.963 -1.0497  0.9530 -0.0656
20036SOL     OW61548   6.475   6.846  12.454 -0.0134 -0.2571  0.7742
20036SOL    HW161549   6.523   6.929  12.462 -0.2837  0.0977 -0.9098
20036SOL    HW261550   6.537   6.787  12.410 -0.3281 -0.4957  0.6497
20037SOL     OW61551   1.439   0.595   1.093 -0.3901  0.0604  0.0298
20037SOL    HW161552   1.382   0.671   1.106  2.1383  1.9917  0.5949
20037SOL    HW261553   1.497   0.620   1.020 -0.2467 -1.8377 -0.5678
20038SOL     OW61554   4.782   7.584   5.894 -0.0968  0.3635  0.4541
20038SOL    HW161555   4.736   7.656   5.937 -0.5937  0.1951  0.2052
20038SOL    HW261556   4.728   7.562   5.818 -0.7025 -1.2236  1.3122
20039SOL     OW61557   2.842   6.416   9.761  0.4786  0.3780  0.0085
20039SOL    HW161558   2.828   6.456   9.675  2.5916  1.5382  0.1322
20039SOL    HW261559   2.899   6.341   9.744  0.5063  0.3215  0.3375
20040SOL     OW61560   3.319   4.481  12.235  0.3501  0.2009  0.4023
20040SOL    HW161561   3.350   4.530  12.311  0.1455 -1.0032  1.2972
20040SOL    HW261562   3.281   4.547  12.177  1.2448  1.2410  0.9641
20041SOL     OW61563   5.728   2.822   7.670 -0.3241  0.8451  0.2664
20041SOL    HW161564   5.632   2.825   7.668 -0.3737 -0.0863 -2.0793
20041SOL    HW261565   5.754   2.838   7.579  1.8111  2.0198  1.0224
20042SOL     OW61566   1.933   2.508  10.523 -0.4141 -0.7209 -0.0201
20042SOL    HW161567   1.861   2.568  10.505  1.6809  1.4253 -1.9123
20042SOL    HW261568   1.896   2.421  10.507 -3.0950  0.1005  1.1367
20043SOL     OW61569   6.474   0.638   9.164  0.4902  0.0041 -0.3073
20043SOL    HW161570   6.516   0.721   9.142  2.1240 -0.6346  0.2461
20043SOL    HW261571   6.446   0.648   9.255 -1.4418  0.7469 -0.9406
20044SOL     OW61572   7.381   6.741   2.921  0.6261 -0.3151 -0.1332
20044SOL    HW161573   7.301   6.696   2.893 -0.0992  1.1747 -0.5687
20044SOL    HW261574   7.452   6.694   2.876 -0.2241 -0.1760 -1.7077
20045SOL     OW61575   5.998   5.192   4.703  0.5210  0.3779  0.0035
20045SOL    HW161576   6.059   5.266   4.709 -1.5869  2.3034 -0.8488
20045SOL    HW261577   5.969   5.193   4.612 -1.4630  0.1224  0.5992
20046SOL     OW61578   6.878   1.415   9.494 -0.3902 -0.1623  0.5581
20046SOL    HW161579   6.784   1.435   9.494 -0.5858 -1.0291  0.6337
20046SOL    HW261580   6.919   1.493   9.458 -1.3051 -0.5657 -1.4885
20047SOL     OW61581   4.871   5.727  10.207  0.2990 -0.1639  0.4707
20047SOL    HW161582   4.927   5.771  10.144  1.8190 -0.9428  1.2203
20047SOL    HW261583   4.785   5.724  10.165  1.3290 -0.9914 -1.7475
20048SOL     OW61584   5.183   2.009   3.596  0.4182  0.3198  0.2909
20048SOL    HW161585   5.136   2.031   3.677  0.6750  0.1678  0.4791
20048SOL    HW261586   5.228   2.090   3.572  0.9598  0.1437  0.7135
20049SOL     OW61587   1.661   6.975   6.933 -0.1639  0.2035 -0.5624
20049SOL    HW161588   1.746   6.966   6.890  0.6712  3.2642  0.2167
20049SOL    HW261589   1.677   6.953   7.024 -0.0745  1.1943 -0.3295
20050SOL     OW61590   2.342   1.516   9.916 -0.3217 -0.2965 -0.2153
20050SOL    HW161591   2.435   1.493   9.912 -0.6532 -1.8625  0.4178
20050SOL    HW261592   2.302   1.468   9.844 -0.8081 -0.5203  0.2003
20051SOL     OW61593   0.658   7.474  11.728  0.1103  1.2007 -0.3301
20051SOL    HW161594   0.568   7.503  11.717 -0.3188 -0.2071 -0.6971
20051SOL    HW261595   0.652   7.399  11.787  0.9596  0.6319 -0.9556
20052SOL     OW61596   5.640   2.059   1.590  0.1755 -0.4266 -0.0114
20052SOL    HW161597   5.693   1.992   1.548  2.3413  0.9306  0.3790
20052SOL    HW261598   5.667   2.141   1.549 -2.1726  0.2876 -0.2689
20053SOL     OW61599   1.351   3.905  10.534  0.6600  0.0503 -0.3070
20053SOL    HW161600   1.400   3.967  10.480  0.8685 -1.2107 -1.6157
20053SOL    HW261601   1.418   3.850  10.575  0.4154 -0.4493 -0.5709
20054SOL     OW61602   7.901   3.083   8.841 -0.5487  0.4213 -0.4163
20054SOL    HW161603   7.909   3.129   8.758  1.6057  0.4475 -0.2433
20054SOL    HW261604   7.861   3.147   8.900 -3.3935 -0.0275 -1.6756
20055SOL     OW61605   4.680   3.323  12.431  0.6021  0.0471 -0.2737
20055SOL    HW161606   4.674   3.408  12.387  1.2300  0.1488 -0.1754
20055SOL    HW261607   4.609   3.271  12.394 -0.0314  0.7468 -0.0488
20056SOL     OW61608   0.650   7.746   9.993 -0.3096  0.1078  0.2277
20056SOL    HW161609   0.618   7.796  10.068  0.9586 -0.3777  1.1143
20056SOL    HW261610   0.741   7.773   9.982  0.0381 -1.0970 -0.0416
20057SOL     OW61611   3.388   0.944   5.715  0.2819  0.1220  0.5027
20057SOL    HW161612   3.345   0.926   5.631 -0.6287 -0.0144  0.9866
20057SOL    HW261613   3.466   0.888   5.714 -0.0335 -0.3245 -0.0020
20058SOL     OW61614   5.096   3.033   0.659  0.3205  0.5797 -0.4197
20058SOL    HW161615   5.110   2.947   0.697  0.1420  0.6208 -0.2616
20058SOL    HW261616   5.002   3.048   0.666 -0.2038 -0.6137 -3.3936
20059SOL     OW61617   1.201   7.088   4.165 -0.2472  0.0744  0.1770
20059SOL    HW161618   1.133   7.119   4.105 -0.6043 -1.3160 -0.1714
20059SOL    HW261619   1.172   7.117   4.252 -0.8007  0.3085 -0.0857
20060SOL     OW61620   1.608   0.030   8.269 -0.3266  0.1055 -0.4475
20060SOL    HW161621   1.682  -0.028   8.287 -0.3240  0.0616 -0.6020
20060SOL    HW261622   1.578   0.004   8.182  0.3836  1.1171 -1.0034
20061SOL     OW61623   2.539   5.619   6.194 -1.0289  0.1844  0.3971
20061SOL    HW161624   2.497   5.574   6.267  1.1817 -1.0016  1.0052
20061SOL    HW261625   2.499   5.579   6.116 -3.0577  1.1259  0.8706
20062SOL     OW61626   4.176   6.376   1.611 -0.3495  0.6730 -0.1771
20062SOL    HW161627   4.090   6.358   1.650  0.3973  0.8461  1.6299
20062SOL    HW261628   4.167   6.463   1.573 -0.2405  1.8732  2.3770
20063SOL     OW61629   7.893   2.657   3.352 -0.3527  0.7262 -0.3093
20063SOL    HW161630   7.985   2.643   3.378 -0.6157  1.8778  1.3979
20063SOL    HW261631   7.888   2.622   3.263  1.4713 -0.3551 -0.0426
20064SOL     OW61632   0.347   7.624  10.392 -0.1277  0.2120  0.3786
20064SOL    HW161633   0.424   7.667  10.355  0.6932  1.0131  2.8732
20064SOL    HW261634   0.284   7.620  10.319  2.5256 -1.2895 -2.0153
20065SOL     OW61635   4.436   3.374  10.077  0.0328  0.2080 -0.2322
20065SOL    HW161636   4.366   3.374  10.011  0.0512 -0.5997 -0.2650
20065SOL    HW261637   4.447   3.282  10.100  1.7592  0.1981 -0.9259
20066SOL     OW61638   5.309   6.522  11.543  0.3450  0.0463  0.0283
20066SOL    HW161639   5.318   6.511  11.638  1.5265  0.7757  0.0223
20066SOL    HW261640   5.217   6.505  11.525  0.3506 -1.3245  1.1329
20067SOL     OW61641   6.894   3.875   0.476 -0.4057  0.0313 -0.4517
20067SOL    HW161642   6.830   3.937   0.513 -1.5927 -1.1749 -0.4189
20067SOL    HW261643   6.853   3.789   0.487  0.6728 -0.6555 -1.6066
20068SOL     OW61644   5.307   5.567   1.154 -0.2082  0.3232 -0.6361
20068SOL    HW161645   5.255   5.598   1.079  0.5664  0.5422 -1.0974
20068SOL    HW261646   5.398   5.574   1.124  0.1113  0.3557  0.3069
20069SOL     OW61647   0.654   1.476   5.015 -0.1006 -0.3763 -0.5804
20069SOL    HW161648   0.677   1.568   5.000 -0.3024  0.6055  3.8366
20069SOL    HW261649   0.684   1.431   4.936  0.0794  3.4114 -2.9251
20070SOL     OW61650   7.569   3.704   2.477 -0.4160 -0.2635  0.2054
20070SOL    HW161651   7.596   3.785   2.519 -1.9044 -0.1427  1.0039
20070SOL    HW261652   7.623   3.698   2.399 -1.7630  2.6377 -1.0689
20071SOL     OW61653   6.005   6.417  11.620  0.4434  0.0536 -0.1911
20071SOL    HW161654   5.965   6.339  11.583  1.5504  0.2274 -1.8656
20071SOL    HW261655   6.039   6.465  11.545  0.0564  2.0202  0.8237
20072SOL     OW61656   0.668   5.822   5.273 -0.6599  0.4300 -0.1158
20072SOL    HW161657   0.681   5.729   5.293  0.3891  0.6310  0.2167
20072SOL    HW261658   0.611   5.822   5.196  1.3922 -0.6021 -1.7649
20073SOL     OW61659   4.620   6.518   3.606 -0.0637  0.0904  0.4812
20073SOL    HW161660   4.661   6.477   3.682  0.6061  2.3988  1.4527
20073SOL    HW261661   4.693   6.537   3.546 -0.3844 -0.2880 -0.0417
20074SOL     OW61662   3.109   5.586   8.526 -0.2108 -0.4297 -0.0587
20074SOL    HW161663   3.038   5.641   8.493  0.0633  0.0965  0.2264
20074SOL    HW261664   3.165   5.571   8.450  0.8225  1.3886  0.2882
20075SOL     OW61665   0.126   1.632   3.391  0.3709  1.2103  0.0284
20075SOL    HW161666   0.173   1.653   3.311  1.1046 -0.2540  0.0405
20075SOL    HW261667   0.194   1.608   3.454 -0.2397  1.6110  0.8686
20076SOL     OW61668   1.721   6.744   1.738  0.1036 -0.0105  0.7438
20076SOL    HW161669   1.631   6.710   1.742 -0.0780  0.4517  0.6011
20076SOL    HW261670   1.716   6.818   1.677  1.0490 -1.4652 -1.2287
20077SOL     OW61671   6.521   4.073   0.998 -0.1979  0.3216  0.4579
20077SOL    HW161672   6.542   3.980   0.992  1.1372  0.5537  1.1771
20077SOL    HW261673   6.594   4.112   1.046 -0.3889  1.8641 -0.4104
20078SOL     OW61674   7.317   7.972   6.406  0.2486  0.2566  0.3758
20078SOL    HW161675   7.342   8.001   6.494 -0.5817  1.4307  0.2406
20078SOL    HW261676   7.383   8.010   6.348 -0.2894  1.0978  0.3016
20079SOL     OW61677   0.460   4.590   4.918 -0.2202 -0.1370  0.2982
20079SOL    HW161678   0.421   4.639   4.845  0.7007 -0.0132 -0.1249
20079SOL    HW261679   0.473   4.656   4.987 -0.0665 -0.0316  0.1671
20080SOL     OW61680   6.288   1.647   2.600 -0.1889  0.5408 -0.0055
20080SOL    HW161681   6.330   1.726   2.635  0.9190 -0.1616  0.3147
20080SOL    HW261682   6.214   1.680   2.549 -0.5158  1.7151  1.1619
20081SOL     OW61683   2.507   3.572   3.837 -0.3710  0.6920  0.9019
20081SOL    HW161684   2.584   3.627   3.824 -0.8368  1.3986  1.1220
20081SOL    HW261685   2.500   3.522   3.755  1.8066 -1.3132  1.8093
20082SOL     OW61686   1.126   2.305   3.480  0.7687 -0.3564  0.0853
20082SOL    HW161687   1.048   2.252   3.491  0.7503 -0.5403 -0.8700
20082SOL    HW261688   1.159   2.283   3.393  2.6963 -1.3619  0.9927
20083SOL     OW61689   0.594   0.775   9.402  0.2997 -0.3031 -0.2691
20083SOL    HW161690   0.619   0.843   9.465  1.3681 -1.0141  0.1097
20083SOL    HW261691   0.550   0.822   9.331 -0.0442  0.6284  0.5422
20084SOL     OW61692   1.023   3.598   8.347 -0.1840  0.0022  0.0303
20084SOL    HW161693   0.971   3.563   8.419 -1.5090  0.2770 -0.7682
20084SOL    HW261694   1.004   3.541   8.273 -0.6961  1.0886 -0.7153
20085SOL     OW61695   4.364   7.652   3.032 -0.2680  0.4513 -0.4587
20085SOL    HW161696   4.414   7.715   3.083  0.3365 -0.6938  0.4220
20085SOL    HW261697   4.309   7.608   3.097  0.5954 -1.1163 -0.7369
20086SOL     OW61698   1.662   7.526   9.417 -0.1028  0.4211  0.0974
20086SOL    HW161699   1.624   7.438   9.416 -0.1129  0.4263 -0.3805
20086SOL    HW261700   1.642   7.561   9.504  1.6035 -0.7953  1.0395
20087SOL     OW61701   4.223   2.921   0.600 -0.2340 -0.1657  0.5083
20087SOL    HW161702   4.225   3.003   0.551 -0.6708 -1.1622 -1.2370
20087SOL    HW261703   4.285   2.864   0.555 -0.5322 -1.0739  1.2121
20088SOL     OW61704   2.769   2.390   7.117 -0.0658 -0.0220  0.1879
20088SOL    HW161705   2.716   2.316   7.147 -1.1124  0.1519 -1.1465
20088SOL    HW261706   2.852   2.380   7.163 -1.2798 -0.1974  2.4804
20089SOL     OW61707   0.038   7.401   2.569 -0.1251 -0.1049  0.3921
20089SOL    HW161708  -0.037   7.415   2.626  0.9813  2.2507  1.3881
20089SOL    HW261709   0.112   7.440   2.615  1.3684 -0.6096 -1.4133
20090SOL     OW61710   4.822   3.485   8.626 -0.4284 -0.2528 -0.4257
20090SOL    HW161711   4.845   3.461   8.716 -2.3976  1.6457  0.6917
20090SOL    HW261712   4.751   3.425   8.603  0.2457 -0.9037 -0.8179
20091SOL     OW61713   1.886   2.984   8.149 -0.0205 -0.6990 -0.4448
20091SOL    HW161714   1.849   2.897   8.167 -1.6263 -0.2965 -1.5639
20091SOL    HW261715   1.831   3.043   8.201  1.4397 -0.3648  0.7815
20092SOL     OW61716   4.160   2.566   8.091  0.1234  0.3391  0.2394
20092SOL    HW161717   4.209   2.484   8.086 -3.1923 -1.7660 -1.3764
20092SOL    HW261718   4.191   2.607   8.172  2.7261 -1.9125  0.5590
20093SOL     OW61719   4.120   5.183  12.096  0.2705 -0.2615  0.0484
20093SOL    HW161720   4.110   5.215  12.006 -0.3838 -0.3838  0.0723
20093SOL    HW261721   4.169   5.252  12.140 -0.0133  0.1246 -0.2289
20094SOL     OW61722   1.645   4.373   5.240 -0.0876 -0.4700 -0.8171
20094SOL    HW161723   1.735   4.406   5.242  1.0346 -3.1903  2.3726
20094SOL    HW261724   1.609   4.393   5.326 -2.1001 -0.6264 -1.5614
20095SOL     OW61725   3.065   2.578  11.310 -0.2009 -0.2557  0.3629
20095SOL    HW161726   3.094   2.489  11.326  0.4997  0.0546  0.8990
20095SOL    HW261727   3.146   2.628  11.300 -0.3774  0.9696  3.6236
20096SOL     OW61728   4.400   3.351  12.115  0.4585  0.2171  0.5262
20096SOL    HW161729   4.464   3.336  12.185  1.4721  1.8241  0.0144
20096SOL    HW261730   4.367   3.439  12.132 -0.5591 -0.0403 -0.0564
20097SOL     OW61731   0.005   7.335  11.327 -0.0454 -0.4375 -0.1551
20097SOL    HW161732   0.087   7.306  11.368 -0.1442  1.0355  1.1686
20097SOL    HW261733  -0.061   7.276  11.363  0.0080  0.2641  1.1660
20098SOL     OW61734   4.373   5.417   3.044 -0.2902 -0.0186  0.1272
20098SOL    HW161735   4.359   5.412   3.138 -0.8416 -0.4647  0.0256
20098SOL    HW261736   4.317   5.349   3.007  0.1440 -0.0470 -0.5053
20099SOL     OW61737   7.664   5.484   4.198  0.6260  0.0287 -0.2447
20099SOL    HW161738   7.620   5.482   4.283  0.9080 -0.2198 -0.1016
20099SOL    HW261739   7.616   5.549   4.147  0.1639 -0.1592 -0.0536
20100SOL     OW61740   5.233   0.575  11.913  0.2731  0.1882  0.2618
20100SOL    HW161741   5.327   0.564  11.903  0.1981 -0.4834  0.2598
20100SOL    HW261742   5.201   0.488  11.936 -0.4200  0.2997 -0.2673
20101SOL     OW61743   5.072   6.330   4.925  0.3771 -0.3058 -0.1427
20101SOL    HW161744   5.068   6.235   4.934  0.2500 -0.6237 -2.7022
20101SOL    HW261745   4.997   6.352   4.870 -0.3440  1.4705  1.4786
20102SOL     OW61746   2.686   4.791  10.499 -0.1191  0.2948 -0.2633
20102SOL    HW161747   2.626   4.783  10.573 -0.1249  2.6080  0.0555
20102SOL    HW261748   2.739   4.712  10.502 -0.0928  0.3253  2.2536
20103SOL     OW61749   3.007   7.387   8.319 -0.7088  0.2060  0.2500
20103SOL    HW161750   3.070   7.325   8.356 -2.0412 -0.9571  0.6810
20103SOL    HW261751   2.985   7.351   8.234 -0.4364  0.8848 -0.1174
20104SOL     OW61752   4.536   4.291   6.178 -0.3068 -0.1314 -0.1911
20104SOL    HW161753   4.590   4.225   6.135  0.5002  0.2215  0.2597
20104SOL    HW261754   4.537   4.366   6.119  1.0383  0.4587  0.5361
20105SOL     OW61755   5.166   2.852   8.999 -0.1967  0.8157  0.2638
20105SOL    HW161756   5.196   2.837   9.089 -0.7162  0.2383  0.3475
20105SOL    HW261757   5.230   2.806   8.944  0.2399  1.3475  0.3235
20106SOL     OW61758   2.598   3.547   6.925  0.2107  0.4075  0.1264
20106SOL    HW161759   2.691   3.560   6.905  0.2876 -0.1010  0.1325
20106SOL    HW261760   2.584   3.453   6.911 -0.6610  0.7238 -1.4103
20107SOL     OW61761   6.586   5.966   4.613  0.0637  0.0646 -0.3983
20107SOL    HW161762   6.517   6.032   4.605  0.4543  0.6393  0.7485
20107SOL    HW261763   6.565   5.918   4.692  0.8684  0.1332 -0.1308
20108SOL     OW61764   0.638   1.407   2.858 -0.3734 -0.2470  0.4071
20108SOL    HW161765   0.717   1.446   2.895  0.7560 -0.9261 -1.1684
20108SOL    HW261766   0.652   1.312   2.865  0.0468 -0.4266 -1.8932
20109SOL     OW61767   6.778   0.961   4.864  0.7367  0.0309 -0.2910
20109SOL    HW161768   6.724   1.037   4.846 -1.2943 -1.0866  0.8150
20109SOL    HW261769   6.838   0.989   4.933 -0.0300  0.6063  0.1478
20110SOL     OW61770   1.873   5.167   2.864  0.1136  0.7637  0.2133
20110SOL    HW161771   1.954   5.181   2.913  0.8540  0.1041 -0.8009
20110SOL    HW261772   1.856   5.251   2.822 -1.5015  1.9380  2.9059
20111SOL     OW61773   3.927   5.442   9.480  0.7451  0.3248  0.1724
20111SOL    HW161774   3.967   5.473   9.399  1.3362  1.1629  0.7680
20111SOL    HW261775   3.959   5.502   9.548 -0.9594  0.5794  0.8033
20112SOL     OW61776   7.167   4.918   8.314  0.9492  0.4025 -1.0436
20112SOL    HW161777   7.251   4.933   8.271  3.3360 -0.0434  2.9486
20112SOL    HW261778   7.163   4.822   8.325  2.1145  0.5903  2.2944
20113SOL     OW61779   6.180   0.865   3.199 -0.0082 -0.2188 -0.5163
20113SOL    HW161780   6.266   0.841   3.233  0.3162  0.7414 -0.6049
20113SOL    HW261781   6.183   0.961   3.194 -1.1875 -0.1541 -0.2560
20114SOL     OW61782   1.004   6.655   4.063 -0.3960  0.0549 -0.5340
20114SOL    HW161783   1.064   6.717   4.104  1.4456 -0.2572 -2.5971
20114SOL    HW261784   1.036   6.569   4.088 -0.3894 -0.1101 -1.0938
20115SOL     OW61785   1.217   5.613   6.296 -0.6186 -0.1776 -0.1621
20115SOL    HW161786   1.234   5.646   6.384  0.1775 -0.9118 -0.0215
20115SOL    HW261787   1.302   5.581   6.266 -0.5351  1.3409 -1.7606
20116SOL     OW61788   4.028   2.809   5.464  0.0875  0.0582  0.0484
20116SOL    HW161789   3.990   2.763   5.390 -0.8302  1.4384 -0.3731
20116SOL    HW261790   3.969   2.882   5.480  0.3077 -0.1415  2.0951
20117SOL     OW61791   4.618   6.765   8.844  0.3386 -0.5353  0.2115
20117SOL    HW161792   4.539   6.734   8.798  0.7802  0.7751 -1.5450
20117SOL    HW261793   4.595   6.759   8.937 -1.1530 -1.8998 -0.1907
20118SOL     OW61794   2.990   2.879   8.479 -0.2115 -0.7831 -0.8572
20118SOL    HW161795   2.978   2.822   8.555 -0.4036  0.0158 -0.2793
20118SOL    HW261796   3.056   2.834   8.426  0.1294 -1.2098 -0.0848
20119SOL     OW61797   6.557   3.223   9.895 -0.3851 -0.2382 -0.4232
20119SOL    HW161798   6.526   3.150   9.843 -1.5068 -0.4112  0.4438
20119SOL    HW261799   6.642   3.246   9.857 -0.0233 -1.9628 -0.7138
20120SOL     OW61800   7.703   0.457  10.270  0.5657  0.0736  0.2909
20120SOL    HW161801   7.788   0.493  10.293 -0.0108  0.2639  2.3573
20120SOL    HW261802   7.695   0.378  10.323  0.0565 -0.7678 -0.9995
20121SOL     OW61803   6.065   3.685   0.742 -0.1139 -0.0102 -0.2007
20121SOL    HW161804   6.071   3.773   0.704  3.3484 -0.3560 -0.8402
20121SOL    HW261805   6.031   3.630   0.671 -1.2365  0.6084 -0.1588
20122SOL     OW61806   3.044   3.203   6.531 -0.0839 -0.1997  0.3186
20122SOL    HW161807   3.100   3.246   6.597 -1.3072  0.1766  1.1432
20122SOL    HW261808   2.980   3.153   6.583 -0.4244 -0.7497 -0.6081
20123SOL     OW61809   4.978   1.784  10.247  0.5284 -0.6836 -0.1230
20123SOL    HW161810   4.991   1.717  10.180  0.9467  0.2572 -1.0135
20123SOL    HW261811   5.063   1.827  10.255  1.1280 -2.0938  2.5540
20124SOL     OW61812   1.117   1.581   2.909 -0.0791 -0.4281  0.1396
20124SOL    HW161813   1.034   1.556   2.868 -0.0606 -1.1217  0.5082
20124SOL    HW261814   1.133   1.513   2.974 -0.2961  0.8421  1.5637
20125SOL     OW61815   6.783   3.629   8.216 -0.0012  0.2953 -0.1579
20125SOL    HW161816   6.723   3.556   8.234 -0.5069  0.1852 -2.0898
20125SOL    HW261817   6.732   3.689   8.163  1.1807  0.8687 -0.6762
20126SOL     OW61818   3.248   3.781  12.200  0.4398  0.0962 -0.2397
20126SOL    HW161819   3.256   3.858  12.145 -0.3247  0.8788  0.6882
20126SOL    HW261820   3.158   3.751  12.187  0.7585 -0.6904 -0.6584
20127SOL     OW61821   3.804   6.797   1.118  0.4706  0.1653 -0.8919
20127SOL    HW161822   3.833   6.715   1.078 -1.1984 -1.7220  1.5049
20127SOL    HW261823   3.763   6.845   1.046  0.4759 -1.5857 -2.1303
20128SOL     OW61824   7.217   6.689  10.931 -0.1660  0.1906  0.4115
20128SOL    HW161825   7.233   6.757  10.997 -0.3895  0.5785  0.0726
20128SOL    HW261826   7.215   6.737  10.848  1.2143 -0.4263 -0.0165
20129SOL     OW61827   5.072   7.578   2.360  0.2368 -0.5555 -0.0255
20129SOL    HW161828   5.153   7.623   2.381 -1.3765  2.2731  0.6730
20129SOL    HW261829   5.051   7.605   2.270 -0.9655  0.5678  0.5494
20130SOL     OW61830   7.669   3.439  10.219 -0.5410  0.6507  0.1011
20130SOL    HW161831   7.741   3.413  10.161 -0.1076  0.5435  0.6831
20130SOL    HW261832   7.686   3.531  10.238 -0.5748  0.6318  0.2201
20131SOL     OW61833   0.942   4.894  11.793  0.0329  0.1821  0.3086
20131SOL    HW161834   1.016   4.866  11.847  1.3272  0.0054 -1.4713
20131SOL    HW261835   0.939   4.989  11.804  0.4014  0.1666  0.5386
20132SOL     OW61836   3.360   4.375   1.915 -0.5536  0.3452  0.0760
20132SOL    HW161837   3.426   4.412   1.856 -0.4463 -0.9716 -0.6648
20132SOL    HW261838   3.409   4.351   1.994 -0.3633  0.4315 -0.0155
20133SOL     OW61839   1.873   7.779  11.872  0.4159  0.4674  0.8425
20133SOL    HW161840   1.871   7.708  11.937 -0.9366 -1.0210 -0.7356
20133SOL    HW261841   1.782   7.805  11.862  0.7368  1.4292  0.3190
20134SOL     OW61842   5.742   1.890   1.424 -0.2402 -0.2931 -0.0730
20134SOL    HW161843   5.684   1.893   1.347 -1.5604 -1.1990  0.8497
20134SOL    HW261844   5.813   1.831   1.398 -1.1117 -1.2537 -0.3294
20135SOL     OW61845   6.804   6.624  10.426  0.1414 -0.4047  0.2382
20135SOL    HW161846   6.794   6.674  10.345  0.4981  0.9410  0.9893
20135SOL    HW261847   6.722   6.576  10.436  0.3543 -1.1468 -1.2560
20136SOL     OW61848   4.231   6.868   9.305  0.1422  0.1937 -0.7089
20136SOL    HW161849   4.298   6.910   9.251 -0.2495  0.5917 -0.8918
20136SOL    HW261850   4.148   6.888   9.261 -0.1649  0.3231 -0.0987
20137SOL     OW61851   2.299   7.229   1.217 -0.1127 -0.4396 -0.6982
20137SOL    HW161852   2.209   7.198   1.222  0.0744 -0.8333  1.2188
20137SOL    HW261853   2.313   7.250   1.125 -1.6690 -1.8097 -1.2855
20138SOL     OW61854   7.282   5.118   2.124  0.1807  0.3025  0.0847
20138SOL    HW161855   7.248   5.138   2.037 -0.5541 -0.4224  0.1979
20138SOL    HW261856   7.361   5.067   2.108 -0.5682 -0.8045 -0.1567
20139SOL     OW61857   0.259   3.502  11.817  0.0585  0.8642  0.2748
20139SOL    HW161858   0.215   3.417  11.813  1.5190  0.1011  0.0223
20139SOL    HW261859   0.309   3.499  11.898  1.6807  0.6706 -0.6981
20140SOL     OW61860   3.067   5.596   7.545 -0.2052 -0.2419 -0.5969
20140SOL    HW161861   3.110   5.655   7.483  0.0645  1.6684  1.2872
20140SOL    HW261862   3.114   5.513   7.536  1.1675  0.5981 -1.4857
20141SOL     OW61863   3.063   6.645   3.754  0.1023  0.2199  0.0462
20141SOL    HW161864   3.066   6.703   3.830 -1.0277  0.7657 -0.3050
20141SOL    HW261865   3.070   6.557   3.791  1.1139  0.5290  0.6434
20142SOL     OW61866   4.714   4.432   2.671 -0.1263 -0.1625 -0.0379
20142SOL    HW161867   4.640   4.487   2.697 -1.0947 -0.9732 -0.9636
20142SOL    HW261868   4.791   4.479   2.702 -0.9458  1.4502 -0.3216
20143SOL     OW61869   7.789   3.260   8.485 -0.9342 -0.1027 -0.1941
20143SOL    HW161870   7.806   3.251   8.391 -2.1388 -2.8293 -0.2719
20143SOL    HW261871   7.720   3.195   8.503 -0.9600  0.5410  2.5223
20144SOL     OW61872   2.495   2.326   4.862 -0.0038 -0.1240  0.3158
20144SOL    HW161873   2.414   2.277   4.876 -0.8325  1.0688 -0.1312
20144SOL    HW261874   2.563   2.259   4.856 -1.3208 -1.3471 -1.9804
20145SOL     OW61875   2.780   1.615   9.754 -0.7525 -0.0830  0.3154
20145SOL    HW161876   2.844   1.557   9.714  0.1708  0.9917  0.1693
20145SOL    HW261877   2.732   1.560   9.815 -0.3951 -1.1491 -0.3355
20146SOL     OW61878   7.510   6.794   1.058 -0.1902 -0.1426  0.0864
20146SOL    HW161879   7.578   6.789   1.126 -0.2037  1.0959  0.2164
20146SOL    HW261880   7.503   6.888   1.038 -1.5021 -0.3032 -0.2959
20147SOL     OW61881   7.477   0.831   9.933  0.3093  0.2943 -0.5713
20147SOL    HW161882   7.433   0.845   9.849 -0.2147 -0.5615 -0.4563
20147SOL    HW261883   7.437   0.894   9.992 -0.7421 -0.4137 -0.4897
20148SOL     OW61884   5.711   1.795   7.541 -0.0332  0.0723  0.1248
20148SOL    HW161885   5.628   1.789   7.495  1.0629 -1.1157 -1.8073
20148SOL    HW261886   5.772   1.828   7.476  1.0193  1.0504  1.5402
20149SOL     OW61887   4.607   4.539   1.224  0.3053  0.4943  0.1489
20149SOL    HW161888   4.699   4.529   1.246  0.0013  0.9495  1.7083
20149SOL    HW261889   4.607   4.600   1.149  1.2302  0.9995  0.5429
20150SOL     OW61890   2.693   6.869   7.427 -0.5102 -0.1687 -0.7085
20150SOL    HW161891   2.721   6.900   7.340  0.3558  0.6967 -0.1399
20150SOL    HW261892   2.598   6.869   7.422 -0.4804  0.1363 -1.5691
20151SOL     OW61893   5.965   6.669   8.050  0.6690  0.4779  0.0878
20151SOL    HW161894   6.015   6.744   8.017  0.2387 -0.0780 -1.9601
20151SOL    HW261895   6.031   6.605   8.076  1.0241  0.9249  0.2916
20152SOL     OW61896   7.494   0.215   7.660  0.6024  0.7371  0.2149
20152SOL    HW161897   7.490   0.308   7.684 -0.8485  0.5505  0.8048
20152SOL    HW261898   7.473   0.168   7.740 -2.7286  0.0616 -0.8694
20153SOL     OW61899   1.646   2.395   6.909  0.0229  0.0053  0.1607
20153SOL    HW161900   1.713   2.376   6.975  1.0450  0.6603 -0.6440
20153SOL    HW261901   1.641   2.490   6.906  1.4185  0.0809 -2.0040
20154SOL     OW61902   3.460   2.394   7.520 -0.1247 -0.1856 -0.1713
20154SOL    HW161903   3.442   2.438   7.603 -1.2189  0.2565 -0.6199
20154SOL    HW261904   3.544   2.351   7.533  0.8148  1.7262  0.4309
20155SOL     OW61905   1.191   0.170   8.416 -0.7088  0.2721 -0.2672
20155SOL    HW161906   1.142   0.143   8.339 -0.4273  1.7589 -1.0117
20155SOL    HW261907   1.190   0.266   8.413 -0.3890  0.3668  1.3904
20156SOL     OW61908   0.364   1.044   2.599 -0.5346  0.3787  0.0298
20156SOL    HW161909   0.337   1.091   2.678 -1.1724 -0.9164  0.6194
20156SOL    HW261910   0.443   0.996   2.626 -0.1130  0.7926 -0.4494
20157SOL     OW61911   5.229   0.067   6.374 -0.3253  0.2737 -0.4055
20157SOL    HW161912   5.174   0.003   6.329 -0.2294  1.7320 -2.7673
20157SOL    HW261913   5.182   0.150   6.364  1.0856  1.1215 -0.2580
20158SOL     OW61914   7.056   4.269   8.805  0.0614 -0.1527  0.2450
20158SOL    HW161915   7.041   4.318   8.885  0.8745 -0.1992  0.4259
20158SOL    HW261916   7.075   4.180   8.834 -0.6812 -0.4202 -0.0525
20159SOL     OW61917   5.284   0.386  10.148  0.3395 -0.5407 -0.0873
20159SOL    HW161918   5.346   0.375  10.221  0.5832  0.7482 -0.0827
20159SOL    HW261919   5.313   0.321  10.083 -0.9871 -3.0282  1.6271
20160SOL     OW61920   2.276   1.077   1.580  0.0039  0.0923  0.0519
20160SOL    HW161921   2.278   1.173   1.581 -0.9241  0.1343  1.3204
20160SOL    HW261922   2.353   1.051   1.530  1.6347  1.4792  1.7096
20161SOL     OW61923   2.584   4.312   1.285  0.3093  0.0416 -0.1775
20161SOL    HW161924   2.498   4.286   1.320  0.7982 -1.3694  0.0458
20161SOL    HW261925   2.613   4.235   1.236  1.8212  0.1991  0.4440
20162SOL     OW61926   5.091   6.362  10.914 -0.1289 -0.1663  0.3704
20162SOL    HW161927   5.104   6.456  10.926 -1.9338  0.2684 -0.7139
20162SOL    HW261928   5.059   6.353  10.824 -1.3611 -1.6517  0.9140
20163SOL     OW61929   6.165   7.454   8.954 -0.5021  0.0576  0.1937
20163SOL    HW161930   6.122   7.532   8.917 -1.5799 -0.9665 -0.8132
20163SOL    HW261931   6.140   7.455   9.046  0.1210  1.2981  0.3717
20164SOL     OW61932   5.566   6.791   8.928  0.0981 -0.9096 -0.4761
20164SOL    HW161933   5.623   6.843   8.984 -0.4874 -1.2579  0.4755
20164SOL    HW261934   5.619   6.772   8.851  0.7233  0.0769 -0.3029
20165SOL     OW61935   6.934   7.688   7.014  0.2107  0.2422  0.5809
20165SOL    HW161936   6.913   7.747   6.942  0.1305  0.9927  1.2160
20165SOL    HW261937   6.976   7.613   6.971  0.4885  0.8334 -0.2100
20166SOL     OW61938   4.323   0.940   7.872 -0.2652 -0.4017  0.0730
20166SOL    HW161939   4.354   1.021   7.912 -1.5165 -0.2038  0.6924
20166SOL    HW261940   4.240   0.921   7.917 -0.5182 -1.4553 -0.7928
20167SOL     OW61941   1.152   3.827   2.676  0.1030 -0.0743  0.2897
20167SOL    HW161942   1.189   3.751   2.721  0.3648 -0.4078 -0.4748
20167SOL    HW261943   1.221   3.893   2.679 -0.6408  0.6797  2.2429
20168SOL     OW61944   1.394   0.660  10.659 -0.0939  0.1361  0.3526
20168SOL    HW161945   1.487   0.661  10.638 -0.2484  0.1031 -0.3503
20168SOL    HW261946   1.389   0.701  10.745  0.6844 -0.8754  0.8951
20169SOL     OW61947   7.163   5.497   8.776 -0.4303  0.2917 -0.4822
20169SOL    HW161948   7.118   5.503   8.860 -1.0351 -2.8663 -0.4483
20169SOL    HW261949   7.189   5.405   8.769 -0.0665  0.5109 -3.5875
20170SOL     OW61950   1.500   2.341   3.478 -0.1059 -0.0855 -0.2075
20170SOL    HW161951   1.429   2.343   3.414  0.2523  0.3683 -0.5977
20170SOL    HW261952   1.463   2.293   3.552 -0.9893  0.5665 -0.2035
20171SOL     OW61953   5.630   2.324   9.957 -0.6257  0.4884  0.0798
20171SOL    HW161954   5.658   2.394  10.016  0.6458 -0.7569  1.0277
20171SOL    HW261955   5.630   2.245  10.011 -0.8397 -0.4511 -1.2415
20172SOL     OW61956   2.082   1.954   2.754  0.6029  0.5075  0.0730
20172SOL    HW161957   2.143   1.957   2.828  0.5942  1.8926  0.0558
20172SOL    HW261958   2.077   2.044   2.724 -1.0570  0.3341 -0.2620
20173SOL     OW61959   1.758   0.671   6.346  0.1382  0.5641  0.6808
20173SOL    HW161960   1.764   0.694   6.439  0.0719  2.0188  0.3413
20173SOL    HW261961   1.675   0.623   6.339  0.0156  0.6643  1.3248
20174SOL     OW61962   6.366   6.275   9.589  0.0390 -0.4343  0.4264
20174SOL    HW161963   6.435   6.268   9.524 -0.9459 -0.1999 -0.6895
20174SOL    HW261964   6.315   6.195   9.579  0.0081 -0.5089  1.0906
20175SOL     OW61965   7.422   1.863   5.400 -0.2071 -0.3405  0.6547
20175SOL    HW161966   7.400   1.881   5.309 -0.4907  0.0537  0.7958
20175SOL    HW261967   7.386   1.937   5.449 -1.4076 -1.2850  1.2593
20176SOL     OW61968   6.020   1.326  12.011 -0.1274  0.1554  0.6397
20176SOL    HW161969   6.088   1.329  12.078 -0.8046 -1.9335  1.4905
20176SOL    HW261970   5.939   1.313  12.060 -0.6997 -0.9080 -0.5478
20177SOL     OW61971   7.840   2.822  10.818 -0.3681  0.0411 -0.5352
20177SOL    HW161972   7.803   2.835  10.730 -1.1831  0.7882 -0.0979
20177SOL    HW261973   7.854   2.728  10.824  0.1636  0.0269 -1.6483
20178SOL     OW61974   2.116   5.905   9.204 -0.1002 -0.2423 -0.0164
20178SOL    HW161975   2.020   5.896   9.200 -0.0854 -1.0385  1.1400
20178SOL    HW261976   2.130   5.997   9.228 -0.5126  0.3233 -1.8077
20179SOL     OW61977   5.920   5.529   0.673 -0.0309 -0.2259 -0.1909
20179SOL    HW161978   5.884   5.509   0.587 -1.1330  0.1631  0.1608
20179SOL    HW261979   5.993   5.588   0.656  0.5413 -1.1452 -0.9377
20180SOL     OW61980   3.298   6.439   4.570  0.2870  0.0648 -0.2096
20180SOL    HW161981   3.271   6.527   4.543  1.9002 -0.1228 -2.8015
20180SOL    HW261982   3.302   6.443   4.665 -2.1241  2.0053 -0.1009
20181SOL     OW61983   4.094   5.970   8.694  0.2045  0.0250 -0.1336
20181SOL    HW161984   4.185   5.985   8.720 -0.3957 -0.0351  2.2579
20181SOL    HW261985   4.080   5.876   8.710 -1.2747  0.6857  3.3855
20182SOL     OW61986   0.124   4.780   3.780  0.3764  0.0374  1.0006
20182SOL    HW161987   0.182   4.774   3.705 -1.5937  0.1450 -0.6342
20182SOL    HW261988   0.096   4.871   3.782 -1.1795 -0.3810  0.5114
20183SOL     OW61989   7.826   3.372   6.621 -0.4451 -1.1231  0.4175
20183SOL    HW161990   7.734   3.394   6.636 -0.5064 -1.4793  0.5586
20183SOL    HW261991   7.825   3.311   6.547 -0.5374 -2.9988  1.8847
20184SOL     OW61992   4.427   4.372   9.129 -0.2158  0.3222 -0.0999
20184SOL    HW161993   4.410   4.332   9.044 -2.1256  0.3821  0.2124
20184SOL    HW261994   4.350   4.426   9.146  1.4275  2.6715  0.3589
20185SOL     OW61995   2.485   7.203   3.589  0.2106 -0.0402  0.4807
20185SOL    HW161996   2.520   7.246   3.510 -0.4813 -0.8352 -0.2806
20185SOL    HW261997   2.393   7.185   3.567  0.0073 -0.2652  1.4864
20186SOL     OW61998   0.338   6.983   9.493  0.0794 -0.2951  0.6984
20186SOL    HW161999   0.277   7.019   9.428  2.2189  1.9827 -0.1797
20186SOL    HW262000   0.311   7.023   9.576 -0.6525 -0.6737  0.6566
20187SOL     OW62001   2.207   7.840   4.960  0.4410  0.4401  0.0192
20187SOL    HW162002   2.279   7.855   5.022  0.8370 -0.3309 -0.2431
20187SOL    HW262003   2.158   7.922   4.960 -0.7209 -0.1180  2.8199
20188SOL     OW62004   6.190   6.287   4.478  0.3656  0.4241  0.1848
20188SOL    HW162005   6.100   6.307   4.502  1.1507  3.2570  1.1102
20188SOL    HW262006   6.183   6.237   4.396 -2.0038  0.5220  0.2793
20189SOL     OW62007   4.788   5.967   3.854 -0.1343 -0.1810 -0.4831
20189SOL    HW162008   4.792   6.048   3.803 -0.8916  0.0943 -0.1159
20189SOL    HW262009   4.872   5.964   3.901  0.6214 -0.5040 -1.8152
20190SOL     OW62010   6.387   3.786   0.449 -0.4996  0.6347 -0.8592
20190SOL    HW162011   6.325   3.848   0.489  1.7751  2.2889  0.3351
20190SOL    HW262012   6.457   3.778   0.514 -1.0636 -4.0211 -0.5166
20191SOL     OW62013   7.083   2.447   5.986  0.6015  0.2495  0.1741
20191SOL    HW162014   7.072   2.357   5.955  0.4878  0.2938  0.0858
20191SOL    HW262015   6.995   2.473   6.016  0.5485  0.4673 -0.1641
20192SOL     OW62016   1.646   6.392   0.085 -0.0042 -0.9328 -0.5347
20192SOL    HW162017   1.694   6.368   0.164 -1.6828  1.1564  1.2580
20192SOL    HW262018   1.665   6.485   0.074 -2.2044 -0.4614 -0.7532
20193SOL     OW62019   5.381   6.681   8.179 -0.7642 -0.0908  0.1291
20193SOL    HW162020   5.316   6.624   8.138  0.0387 -1.2986  0.4470
20193SOL    HW262021   5.427   6.722   8.106 -1.9747  0.9137 -0.0919
20194SOL     OW62022   7.156   6.382   4.304 -0.1350  0.1187  0.0803
20194SOL    HW162023   7.167   6.408   4.213 -1.1200 -0.0361 -0.0920
20194SOL    HW262024   7.104   6.453   4.343  1.9678  1.2177  1.0550
20195SOL     OW62025   6.113   3.014   0.990 -0.0211  0.7044 -0.3013
20195SOL    HW162026   6.116   3.032   1.084 -0.8035 -1.2532  0.1546
20195SOL    HW262027   6.126   2.919   0.984 -0.9999  0.6524 -2.1051
20196SOL     OW62028   2.911   3.633   5.780  0.3173 -0.5251  0.3770
20196SOL    HW162029   2.928   3.687   5.856  0.6409  0.8529 -0.6451
20196SOL    HW262030   2.994   3.631   5.732  0.2056 -1.6277  0.1866
20197SOL     OW62031   6.518   1.166   0.592 -0.5202 -0.0364  0.1291
20197SOL    HW162032   6.434   1.158   0.637 -0.1977  1.9687  1.2282
20197SOL    HW262033   6.496   1.204   0.507 -0.6844  1.4308  0.8005
20198SOL     OW62034   3.213   2.931   3.819 -0.0123  0.6426 -0.4753
20198SOL    HW162035   3.171   2.848   3.845 -0.1539  0.3243 -1.6667
20198SOL    HW262036   3.286   2.940   3.880 -0.0232 -0.3353 -0.2878
20199SOL     OW62037   1.079   4.429  11.656  0.6945 -0.3957 -0.2782
20199SOL    HW162038   1.046   4.387  11.577 -1.0141  0.7639 -0.2299
20199SOL    HW262039   1.081   4.522  11.635  0.7964 -0.1265  0.8479
20200SOL     OW62040   0.226   1.571   7.035  0.4590 -0.8926  0.8017
20200SOL    HW162041   0.139   1.530   7.034 -0.8026  1.6191  0.6701
20200SOL    HW262042   0.274   1.525   6.966 -1.2570 -1.3612 -0.1588
20201SOL     OW62043   5.331   2.167   7.638  0.4515 -0.2248  0.7739
20201SOL    HW162044   5.416   2.205   7.615 -0.3916  1.9841  1.1122
20201SOL    HW262045   5.353   2.098   7.701  2.2061 -1.8257 -1.4209
20202SOL     OW62046   7.217   3.781   1.062 -0.1230  0.4001  0.1267
20202SOL    HW162047   7.261   3.850   1.013  2.4801 -1.5874 -0.6043
20202SOL    HW262048   7.146   3.753   1.004  0.1142  1.0586 -0.5018
20203SOL     OW62049   6.685   7.410   3.431 -0.0491 -0.0720  0.2912
20203SOL    HW162050   6.700   7.494   3.475  1.8052 -0.6639  0.8942
20203SOL    HW262051   6.740   7.348   3.479 -0.8373 -1.4953 -0.5898
20204SOL     OW62052   3.175   1.658   7.633 -0.6168  0.1441  0.3408
20204SOL    HW162053   3.121   1.698   7.565 -0.1866  0.7031  0.3155
20204SOL    HW262054   3.172   1.721   7.706  2.0356  1.4872 -0.5861
20205SOL     OW62055   5.717   1.891   8.699 -0.4070 -0.0059 -0.2888
20205SOL    HW162056   5.651   1.958   8.680 -0.4098 -0.0580 -0.4644
20205SOL    HW262057   5.734   1.850   8.614 -0.6451 -0.4477 -0.1281
20206SOL     OW62058   2.400   0.345  10.470 -0.1346  0.0758 -0.4085
20206SOL    HW162059   2.315   0.301  10.457 -1.1686  1.7436  0.3818
20206SOL    HW262060   2.462   0.274  10.485 -1.6946 -1.1362  0.5907
20207SOL     OW62061   5.529   6.772   2.001  0.1854  0.4004  0.4847
20207SOL    HW162062   5.591   6.790   2.072  0.0846 -1.5784  1.1328
20207SOL    HW262063   5.443   6.789   2.040  0.2345  3.0208 -0.3758
20208SOL     OW62064   1.532   5.256   4.146  0.1588 -0.0601 -0.0498
20208SOL    HW162065   1.612   5.209   4.168 -0.8431 -1.9421 -0.2077
20208SOL    HW262066   1.461   5.198   4.175 -1.1898  2.1382  1.3247
20209SOL     OW62067   5.144   0.065  11.398  0.1189 -0.3760  0.1277
20209SOL    HW162068   5.205   0.010  11.447 -0.4514 -2.1568 -1.0807
20209SOL    HW262069   5.065   0.012  11.390 -0.7150  0.9181 -0.4539
20210SOL     OW62070   5.837   1.000   0.156 -0.0391 -0.0220  0.0065
20210SOL    HW162071   5.760   0.964   0.113 -0.1341  1.7632 -1.4821
20210SOL    HW262072   5.832   0.968   0.246 -2.1277 -0.5165 -0.2313
20211SOL     OW62073   3.478   4.285   6.307  0.3012 -0.6276 -0.6467
20211SOL    HW162074   3.472   4.272   6.402  0.3461  1.4337 -0.3244
20211SOL    HW262075   3.410   4.349   6.287 -0.2790 -1.6846 -2.1689
20212SOL     OW62076   5.462   0.622   9.161  0.2221  0.0554 -0.0868
20212SOL    HW162077   5.389   0.683   9.153  0.1697 -0.0725 -0.6050
20212SOL    HW262078   5.522   0.665   9.223 -0.3941  0.0525  0.5259
20213SOL     OW62079   7.732   6.864   2.328 -0.2013 -0.5573 -0.0190
20213SOL    HW162080   7.659   6.919   2.357 -0.5583 -0.6002 -0.8189
20213SOL    HW262081   7.701   6.774   2.342 -0.0300 -0.5702  0.2875
20214SOL     OW62082   7.823   1.119   6.441  0.3812 -0.3202 -0.6711
20214SOL    HW162083   7.816   1.206   6.402  0.9514  0.1621  0.2663
20214SOL    HW262084   7.843   1.062   6.368  1.8327  0.6263 -1.0537
20215SOL     OW62085   6.031   6.457  11.905  0.0562 -0.4961  0.2174
20215SOL    HW162086   6.032   6.436  11.811  1.4010  0.1342  0.0731
20215SOL    HW262087   5.989   6.543  11.910 -0.0760 -0.5595  0.2046
20216SOL     OW62088   3.125   7.482  11.685  0.2432 -0.4670 -0.7326
20216SOL    HW162089   3.104   7.514  11.772  0.1055 -2.6835  0.1039
20216SOL    HW262090   3.047   7.502  11.633 -0.3134 -0.5161  0.0609
20217SOL     OW62091   6.874   1.246   9.962 -0.3096  0.3210 -0.2085
20217SOL    HW162092   6.870   1.314  10.029  0.5250 -1.6920  1.9756
20217SOL    HW262093   6.782   1.228   9.940 -0.5804  1.0628  0.2855
20218SOL     OW62094   5.480   3.723   1.579  0.5118  0.0495  0.0624
20218SOL    HW162095   5.447   3.694   1.495  0.7515  0.9126 -0.3399
20218SOL    HW262096   5.490   3.818   1.570 -0.9330  0.3847  1.5588
20219SOL     OW62097   5.967   4.925   4.689  0.8413  0.4541 -0.4900
20219SOL    HW162098   5.922   4.924   4.773  0.0510  0.0656 -0.9108
20219SOL    HW262099   5.989   5.017   4.674  0.2176  0.6406 -0.2632
20220SOL     OW62100   0.536   4.839  11.768 -0.5062  0.1844 -0.4688
20220SOL    HW162101   0.458   4.892  11.785 -1.2617 -0.9172 -0.3943
20220SOL    HW262102   0.502   4.755  11.738  0.6217 -0.6240  0.4187
20221SOL     OW62103   7.125   5.430  10.043  0.1353  0.0154 -0.0425
20221SOL    HW162104   7.086   5.465  10.123  1.7962  0.8131  0.4508
20221SOL    HW262105   7.216   5.457  10.046  0.6538 -1.4019 -1.3891
20222SOL     OW62106   1.084   5.620   5.330  0.3065 -0.4368  0.1103
20222SOL    HW162107   1.039   5.581   5.404 -1.2300  1.1005  0.0360
20222SOL    HW262108   1.095   5.712   5.354 -1.7235  0.5140 -2.1701
20223SOL     OW62109   4.271   6.715   0.506  0.1910 -0.6216 -0.2135
20223SOL    HW162110   4.272   6.810   0.496  1.4944 -0.6695 -0.6949
20223SOL    HW262111   4.242   6.681   0.421  0.2680 -0.6786 -0.2167
20224SOL     OW62112   6.802   0.820   0.110 -0.5296 -0.1713 -0.7349
20224SOL    HW162113   6.893   0.803   0.135 -1.2659 -0.2182  2.2456
20224SOL    HW262114   6.777   0.897   0.161 -2.0899  0.0357 -1.7380
20225SOL     OW62115   7.080   0.188   7.974 -0.1241  0.0045  0.0647
20225SOL    HW162116   7.151   0.163   8.032 -0.1208  0.3574  0.2106
20225SOL    HW262117   7.069   0.112   7.916 -0.4873 -0.5715  0.8673
20226SOL     OW62118   6.276   4.035   8.687 -0.4430  1.0968  0.3378
20226SOL    HW162119   6.297   3.954   8.732  0.4322  0.5758 -0.9746
20226SOL    HW262120   6.315   4.104   8.742  0.4788  0.4921  0.4501
20227SOL     OW62121   4.802   0.869   2.849  0.1970  0.5692 -0.2556
20227SOL    HW162122   4.857   0.936   2.891 -1.3765  1.1070  1.0288
20227SOL    HW262123   4.722   0.867   2.901 -1.5989  0.7669 -2.8225
20228SOL     OW62124   7.299   3.990   2.829  0.1886  0.7950 -0.0593
20228SOL    HW162125   7.264   3.971   2.916  0.1772  0.1144 -0.2076
20228SOL    HW262126   7.221   4.006   2.775  0.1728  0.7477 -0.0511
20229SOL     OW62127   6.905   1.038   1.305 -0.4660 -0.1514  0.7006
20229SOL    HW162128   6.833   1.043   1.368 -0.2623  0.7521  0.8765
20229SOL    HW262129   6.862   1.021   1.221 -0.9292  0.7108  0.7487
20230SOL     OW62130   0.399   5.519   8.514 -0.6107 -0.3438  0.0573
20230SOL    HW162131   0.366   5.437   8.477 -2.2454  0.1478  0.3729
20230SOL    HW262132   0.334   5.544   8.579  0.7594  0.3122  1.2190
20231SOL     OW62133   1.207   2.821   0.258 -0.4650 -0.4281  0.0937
20231SOL    HW162134   1.189   2.791   0.347  0.4750  0.1994  0.5076
20231SOL    HW262135   1.253   2.748   0.217  0.7479 -0.0452  0.7202
20232SOL     OW62136   5.180   2.381   7.665 -0.2019 -0.3934 -0.6983
20232SOL    HW162137   5.235   2.457   7.682 -1.6862  0.9828 -1.6932
20232SOL    HW262138   5.241   2.308   7.657  1.3991  0.9060 -0.9343
20233SOL     OW62139   0.141   2.916   8.104  0.4590  0.1903 -0.0997
20233SOL    HW162140   0.057   2.882   8.074  0.4760  0.8962 -1.0255
20233SOL    HW262141   0.178   2.846   8.157 -0.9319  0.0568  0.7599
20234SOL     OW62142   0.319   2.647  10.851 -0.6124  0.0135 -0.0736
20234SOL    HW162143   0.228   2.677  10.846 -0.9136 -1.0503 -2.1139
20234SOL    HW262144   0.370   2.719  10.814 -0.7519  0.1189 -0.0606
20235SOL     OW62145   4.126   0.788   3.323 -0.2460 -0.0159  0.6051
20235SOL    HW162146   4.155   0.773   3.413  0.2891 -0.6710  0.3312
20235SOL    HW262147   4.097   0.879   3.322 -0.2243  0.0051  1.4328
20236SOL     OW62148   3.291   0.575   5.591  0.4251  0.0340  0.1519
20236SOL    HW162149   3.325   0.575   5.681  3.8742 -0.1384 -0.9985
20236SOL    HW262150   3.344   0.510   5.545 -0.9462  0.4109 -2.1346
20237SOL     OW62151   2.574   7.458   6.833 -0.0322 -0.0748  0.3823
20237SOL    HW162152   2.555   7.512   6.756  0.0677 -0.7134 -0.1030
20237SOL    HW262153   2.656   7.492   6.867  0.7199 -0.7563 -0.7009
20238SOL     OW62154   4.006   6.034   5.240  0.0864  0.0660  0.2675
20238SOL    HW162155   4.099   6.024   5.260  0.0560 -1.1579 -0.1024
20238SOL    HW262156   3.968   6.076   5.317  1.3393  2.8803 -0.5094
20239SOL     OW62157   2.980   6.263   3.385  0.0293 -0.0827  0.2165
20239SOL    HW162158   3.025   6.260   3.301  1.1973 -0.9525  0.8491
20239SOL    HW262159   3.044   6.300   3.446 -0.4955 -0.2545  0.8890
20240SOL     OW62160   7.855   5.218   8.204 -0.5155 -0.1588 -0.2843
20240SOL    HW162161   7.909   5.165   8.263 -0.8131 -1.6402 -1.2743
20240SOL    HW262162   7.917   5.266   8.150 -0.2371  0.4070  0.5212
20241SOL     OW62163   1.453   3.573   0.028  0.9907 -0.4399  0.3851
20241SOL    HW162164   1.386   3.552   0.093  1.3544 -1.3031  0.4985
20241SOL    HW262165   1.419   3.538  -0.054  0.1164  1.4441 -0.1086
20242SOL     OW62166   6.995   2.572   8.012  0.4560  0.2666 -0.1538
20242SOL    HW162167   7.008   2.647   7.954 -1.2106 -0.0686 -1.0313
20242SOL    HW262168   6.914   2.592   8.060  0.0059 -0.9320 -0.3792
20243SOL     OW62169   4.894   4.617   3.201 -0.1373 -0.1170  0.0070
20243SOL    HW162170   4.871   4.673   3.276  0.8569  0.5124 -0.1345
20243SOL    HW262171   4.811   4.601   3.157 -0.7488 -0.4835  1.2269
20244SOL     OW62172   4.546   2.647   7.564 -0.4985 -0.5658  0.8156
20244SOL    HW162173   4.508   2.580   7.507  0.4323 -0.6682  0.2857
20244SOL    HW262174   4.471   2.695   7.598 -1.0860  0.9562 -2.2399
20245SOL     OW62175   5.515   2.258   6.565  0.0302  0.4763  0.3672
20245SOL    HW162176   5.553   2.334   6.521 -2.1709  0.9364 -0.9489
20245SOL    HW262177   5.421   2.276   6.565 -0.4191 -1.5885  1.3494
20246SOL     OW62178   1.302   1.390   5.340  0.4366 -0.5425  0.4796
20246SOL    HW162179   1.282   1.422   5.252  2.0031 -1.5801 -0.2975
20246SOL    HW262180   1.219   1.395   5.387 -0.5573 -0.4422 -1.2166
20247SOL     OW62181   1.854   0.819   2.456  0.0780  0.2581 -0.2458
20247SOL    HW162182   1.914   0.855   2.522 -0.8637  0.9908  0.2531
20247SOL    HW262183   1.841   0.728   2.483  2.4255 -0.5068 -1.4658
20248SOL     OW62184   6.460   1.336   7.598 -0.2473  0.3775 -0.0386
20248SOL    HW162185   6.390   1.364   7.539 -1.0310 -1.5192 -0.0927
20248SOL    HW262186   6.417   1.277   7.660  1.1797 -0.3458  0.3114
20249SOL     OW62187   5.135   7.453   6.028 -0.2138 -0.6243 -0.1492
20249SOL    HW162188   5.099   7.490   5.947  0.3030 -1.6386 -0.8773
20249SOL    HW262189   5.216   7.503   6.043 -1.0959  0.6169  0.6337
20250SOL     OW62190   1.529   3.010   6.735  0.1950 -0.9029 -0.3714
20250SOL    HW162191   1.562   3.064   6.664 -0.1891 -0.5386 -0.2740
20250SOL    HW262192   1.465   3.064   6.779  0.2615 -1.2120  0.1147
20251SOL     OW62193   4.943   0.921   2.591  0.2824  0.0671 -0.2553
20251SOL    HW162194   4.866   0.918   2.647  1.3376  2.0217  1.4610
20251SOL    HW262195   4.930   0.999   2.537 -0.1791 -1.1483 -1.9634
20252SOL     OW62196   7.629   4.732  10.252  0.3711 -0.1587  0.0268
20252SOL    HW162197   7.715   4.766  10.275  0.2838 -0.7511  1.3226
20252SOL    HW262198   7.568   4.791  10.296  0.1871 -1.1357  1.1145
20253SOL     OW62199   7.503   2.441   4.707 -0.1841  0.7231 -0.2565
20253SOL    HW162200   7.529   2.364   4.759 -0.6012 -0.7732 -2.1599
20253SOL    HW262201   7.457   2.497   4.770  0.9245 -0.1367  1.4032
20254SOL     OW62202   5.171   2.474  10.105  0.0079 -0.0546  0.3237
20254SOL    HW162203   5.193   2.402  10.164 -1.1508  1.3042  2.5879
20254SOL    HW262204   5.094   2.443  10.056 -0.4648 -0.3966  1.2547
20255SOL     OW62205   5.979   0.545  11.233  0.0633  0.2232  0.1356
20255SOL    HW162206   6.067   0.582  11.224 -0.5482  1.6123 -0.3713
20255SOL    HW262207   5.971   0.523  11.326  0.5022  1.2488  0.4221
20256SOL     OW62208   2.397   5.083  11.370 -0.4777 -0.1893  0.0220
20256SOL    HW162209   2.474   5.103  11.422 -0.5196 -1.6368  0.6825
20256SOL    HW262210   2.338   5.157  11.385 -0.1709 -0.2001  1.4221
20257SOL     OW62211   6.464   4.671   3.254  0.3832  0.5787 -0.8835
20257SOL    HW162212   6.474   4.704   3.164 -1.4724  1.2212 -0.8847
20257SOL    HW262213   6.516   4.731   3.307  0.0091  1.3038 -1.3208
20258SOL     OW62214   1.778   2.459   2.866  0.3513  0.1977 -0.9448
20258SOL    HW162215   1.774   2.539   2.920  0.5244 -0.1138 -0.4631
20258SOL    HW262216   1.699   2.463   2.813 -1.8774 -1.3347  1.9682
20259SOL     OW62217   4.982   7.065   1.903  0.3010  0.3637 -0.1709
20259SOL    HW162218   4.963   7.052   1.810 -0.4966  0.6888 -0.0594
20259SOL    HW262219   5.073   7.096   1.905  1.8302 -3.5071 -0.5890
20260SOL     OW62220   5.052   6.061   5.489 -0.0727 -0.5372 -0.0651
20260SOL    HW162221   4.958   6.040   5.486  0.0213 -0.8465 -1.7018
20260SOL    HW262222   5.063   6.130   5.424  0.8569 -0.5743  0.0454
20261SOL     OW62223   5.411   1.067   4.333 -0.1361 -0.2671  0.0439
20261SOL    HW162224   5.341   1.057   4.398  0.3928  2.0512  1.0618
20261SOL    HW262225   5.377   1.026   4.254 -1.9556 -0.6658  0.9856
20262SOL     OW62226   3.592   5.791   2.532 -0.7257 -0.1784  0.5250
20262SOL    HW162227   3.615   5.876   2.569  1.3926 -0.7552  0.7082
20262SOL    HW262228   3.657   5.731   2.569  0.0939 -1.2148 -2.3127
20263SOL     OW62229   3.389   7.595  12.088  0.3567  0.6076  0.0922
20263SOL    HW162230   3.416   7.616  12.177  0.8159 -1.6898  0.5697
20263SOL    HW262231   3.469   7.564  12.046 -0.0338  0.8445 -0.8364
20264SOL     OW62232   7.385   3.917   7.436  0.0212  0.4332  0.5003
20264SOL    HW162233   7.337   3.988   7.477 -1.6646 -0.0949 -0.4757
20264SOL    HW262234   7.358   3.838   7.482 -0.5920  0.0492 -0.4761
20265SOL     OW62235   5.519   3.457   8.261  0.1731 -0.1134  0.4166
20265SOL    HW162236   5.579   3.529   8.281  0.6669 -0.5801  0.6300
20265SOL    HW262237   5.472   3.486   8.183  1.0784  0.0181 -0.0890
20266SOL     OW62238   0.128   0.630  11.589 -0.2896 -0.4980 -0.0085
20266SOL    HW162239   0.033   0.621  11.590 -0.4224  0.1949 -2.1032
20266SOL    HW262240   0.151   0.644  11.681 -1.9327 -2.8645  0.8839
20267SOL     OW62241   3.536   5.380   1.158  0.6683 -0.2267 -0.6575
20267SOL    HW162242   3.516   5.311   1.094  1.5524 -0.5019 -0.6579
20267SOL    HW262243   3.583   5.334   1.228 -1.8010 -0.2764  1.0975
20268SOL     OW62244   2.762   4.833   0.498 -0.3436  0.4484 -0.1951
20268SOL    HW162245   2.693   4.820   0.563 -0.3861 -0.8833 -0.4879
20268SOL    HW262246   2.834   4.778   0.528  0.7354  2.0260  0.2581
20269SOL     OW62247   1.565   5.533   5.523  0.3262  0.3385 -0.0988
20269SOL    HW162248   1.614   5.550   5.442 -0.5440 -1.6064 -1.0943
20269SOL    HW262249   1.486   5.588   5.514 -0.3896 -0.8104 -1.2359
20270SOL     OW62250   3.037   2.688   4.888 -0.0990  0.4698 -0.1533
20270SOL    HW162251   3.103   2.619   4.880 -0.7867 -0.3545  0.9863
20270SOL    HW262252   2.954   2.642   4.884 -0.6160  1.4283 -0.9210
20271SOL     OW62253   3.207   3.113   4.771  0.8714  0.1740 -0.4426
20271SOL    HW162254   3.196   3.193   4.718 -0.0438  0.6156  0.3789
20271SOL    HW262255   3.235   3.145   4.857  2.0843 -0.5202 -0.5494
20272SOL     OW62256   0.981   6.797   4.711  0.4191  0.1557 -0.5125
20272SOL    HW162257   1.067   6.774   4.748  0.5399  1.1989 -0.1263
20272SOL    HW262258   0.988   6.773   4.618  1.9219  2.2261 -1.0078
20273SOL     OW62259   7.220   5.959   4.198 -0.5205 -0.1745 -0.2070
20273SOL    HW162260   7.138   5.928   4.238 -0.2548 -1.3388 -0.5117
20273SOL    HW262261   7.246   6.034   4.252 -1.7634  0.1931 -0.0900
20274SOL     OW62262   6.166   2.578   9.439 -0.0896  0.1104 -0.0249
20274SOL    HW162263   6.100   2.535   9.494  1.0734 -3.2356 -0.9429
20274SOL    HW262264   6.248   2.535   9.464  0.7696 -0.1000 -2.9300
20275SOL     OW62265   0.237   0.004   5.635  0.5192  0.1386 -0.7087
20275SOL    HW162266   0.240   0.037   5.546 -2.2783  0.4329 -0.7900
20275SOL    HW262267   0.223  -0.090   5.625  0.5371  0.1244 -0.6002
20276SOL     OW62268   4.463   6.774  11.042 -0.1142 -0.0305 -0.1229
20276SOL    HW162269   4.377   6.773  11.001 -0.5267  0.5797  0.6875
20276SOL    HW262270   4.496   6.862  11.028  1.8848 -1.1270 -3.3447
20277SOL     OW62271   6.800   3.833   1.300 -0.2595 -0.3894  0.4364
20277SOL    HW162272   6.839   3.919   1.280  0.3560 -0.6521  0.4860
20277SOL    HW262273   6.872   3.782   1.338 -0.3721 -1.2300 -0.4396
20278SOL     OW62274   6.937   6.329   2.124 -0.1532 -0.0051 -0.5873
20278SOL    HW162275   6.963   6.360   2.210 -0.3528 -1.8656  0.2058
20278SOL    HW262276   6.849   6.365   2.110 -0.0190  0.5012 -0.1257
20279SOL     OW62277   0.672   6.272   3.841 -0.1837 -0.0199  0.3486
20279SOL    HW162278   0.647   6.241   3.928  0.0857 -1.3748 -0.0291
20279SOL    HW262279   0.593   6.316   3.808 -0.0033  1.3448  1.6027
20280SOL     OW62280   6.484   7.821   2.467  0.1153 -0.0022 -0.3871
20280SOL    HW162281   6.424   7.809   2.393  4.1584 -2.8917 -3.7247
20280SOL    HW262282   6.538   7.896   2.441  1.4592 -0.9274 -0.3564
20281SOL     OW62283   3.405   1.926   2.960  0.2797 -0.5288 -0.1402
20281SOL    HW162284   3.316   1.925   2.926 -0.1929 -1.0714  1.0809
20281SOL    HW262285   3.400   1.975   3.042  1.4898  1.1509 -1.0058
20282SOL     OW62286   1.933   5.982  12.156 -0.0445  0.5243  0.5146
20282SOL    HW162287   1.860   5.931  12.120  1.1794 -0.7527 -0.2324
20282SOL    HW262288   1.969   5.927  12.226  1.1800  0.3889 -0.1864
20283SOL     OW62289   1.810   5.989   5.993 -0.3741 -0.0040 -0.3282
20283SOL    HW162290   1.756   6.067   6.007 -0.3280  0.0777 -0.6015
20283SOL    HW262291   1.754   5.930   5.943  0.0965  0.4446 -1.4188
20284SOL     OW62292   1.851   2.249  10.472  0.1625 -0.6275 -0.4637
20284SOL    HW162293   1.761   2.269  10.447  0.2693  0.9162  0.2857
20284SOL    HW262294   1.896   2.235  10.389 -0.5565 -0.4569 -0.8927
20285SOL     OW62295   7.214   5.382   9.473  0.3286 -0.7164  0.1260
20285SOL    HW162296   7.272   5.453   9.500 -1.7455  1.6175 -1.1447
20285SOL    HW262297   7.266   5.330   9.413  1.1207  1.5057 -1.2575
20286SOL     OW62298   1.497   4.401   2.813 -0.0316  0.2365  0.7156
20286SOL    HW162299   1.588   4.396   2.842  0.7732 -0.1325 -1.6295
20286SOL    HW262300   1.452   4.332   2.863  1.1145 -0.0499  1.3912
20287SOL     OW62301   4.142   7.459   1.726 -0.3841 -0.4299  0.3837
20287SOL    HW162302   4.173   7.544   1.758  0.2950 -0.1316 -1.0106
20287SOL    HW262303   4.080   7.481   1.656 -0.3738 -1.0890  0.1646
20288SOL     OW62304   0.304   5.452   5.234  0.1871 -0.6829 -0.0611
20288SOL    HW162305   0.303   5.533   5.185  0.8415  0.8394  2.2525
20288SOL    HW262306   0.313   5.383   5.168  1.6155  1.2241 -1.9892
20289SOL     OW62307   7.570   6.654  11.975  0.2336 -0.1522  0.4266
20289SOL    HW162308   7.479   6.647  12.002  0.0346  0.2306 -0.1396
20289SOL    HW262309   7.599   6.563  11.966  0.1862 -0.2879  1.5029
20290SOL     OW62310   7.139   0.212   5.403 -0.2521 -0.6126  0.1916
20290SOL    HW162311   7.200   0.150   5.362  1.2654  1.0070 -0.1291
20290SOL    HW262312   7.125   0.279   5.337  0.7798  1.0904  1.5998
20291SOL     OW62313   6.301   1.772  11.528  0.4450 -0.0054 -0.1061
20291SOL    HW162314   6.314   1.715  11.452  0.0161 -0.0899 -0.1214
20291SOL    HW262315   6.307   1.714  11.604  0.0407 -0.0720 -0.1200
20292SOL     OW62316   5.270   2.181   5.148  0.1333  0.2702 -0.3179
20292SOL    HW162317   5.300   2.187   5.057  1.5193 -0.1178  0.0876
20292SOL    HW262318   5.273   2.271   5.181  2.9562  0.0399  0.3112
20293SOL     OW62319   6.604   2.454   7.317 -0.6890  0.3334  0.2865
20293SOL    HW162320   6.657   2.448   7.396 -0.4888  0.7084  0.1849
20293SOL    HW262321   6.654   2.407   7.251 -0.0453  1.4374 -0.0319
20294SOL     OW62322   3.383   1.643   0.142 -0.0249 -0.1935 -0.1872
20294SOL    HW162323   3.438   1.716   0.114  1.8589 -0.5895  2.1650
20294SOL    HW262324   3.400   1.574   0.077  3.6568 -0.8657  1.2476
20295SOL     OW62325   2.503   6.300   1.692  0.2120 -0.0477 -0.0337
20295SOL    HW162326   2.434   6.233   1.690  0.0950  0.0629  0.2074
20295SOL    HW262327   2.461   6.380   1.663  0.2478  0.0117  0.0757
20296SOL     OW62328   0.718   0.923  11.374 -0.0705 -0.3151  0.0245
20296SOL    HW162329   0.694   0.832  11.393 -0.8235 -0.6484 -2.2058
20296SOL    HW262330   0.674   0.974  11.442  1.3303 -1.6345  2.0406
20297SOL     OW62331   4.047   2.595  11.993  0.7625 -0.4180 -0.2686
20297SOL    HW162332   3.985   2.538  12.039  0.9024  0.6647  1.3281
20297SOL    HW262333   4.051   2.558  11.904 -1.8936 -0.7543 -0.3419
20298SOL     OW62334   4.047   4.176   0.764 -0.6033  0.0452 -0.5249
20298SOL    HW162335   4.118   4.164   0.827 -2.0878  0.3377  1.2846
20298SOL    HW262336   4.056   4.267   0.734 -0.2301  0.0842 -0.2898
20299SOL     OW62337   0.030   5.191  12.207 -0.2315  0.1945 -0.0777
20299SOL    HW162338   0.123   5.210  12.219  0.0881 -0.7735 -0.8683
20299SOL    HW262339   0.018   5.187  12.112 -1.1073  0.4057  0.0188
20300SOL     OW62340   2.811   3.757  10.341  0.0267 -0.3878 -0.0326
20300SOL    HW162341   2.804   3.684  10.402 -0.7697  0.1661  0.5545
20300SOL    HW262342   2.799   3.835  10.396 -0.8507  0.1157 -0.9180
20301SOL     OW62343   3.585   5.547  11.557 -0.3491  0.3792  0.4915
20301SOL    HW162344   3.568   5.618  11.618 -2.1283  0.0903  0.3932
20301SOL    HW262345   3.664   5.573  11.511  0.2524  1.2525  1.9464
20302SOL     OW62346   6.649   4.826   8.756 -0.1475  0.1222  0.0674
20302SOL    HW162347   6.646   4.876   8.838  0.6614  0.9801 -0.4084
20302SOL    HW262348   6.736   4.787   8.755 -0.4602 -0.5983  0.0122
20303SOL     OW62349   1.135   0.555  10.337 -0.1553 -0.0844  0.7026
20303SOL    HW162350   1.102   0.639  10.367  0.8802  0.7377 -0.3674
20303SOL    HW262351   1.057   0.505  10.313 -0.7396  0.8134  0.7082
20304SOL     OW62352   3.050   2.376   6.501 -0.6808  0.0527 -0.1158
20304SOL    HW162353   3.036   2.470   6.514  2.0185  0.5854 -0.4393
20304SOL    HW262354   3.082   2.345   6.586 -0.1155 -0.2617 -0.4457
20305SOL     OW62355   4.052   0.760   5.964  0.1617 -0.2609 -0.3862
20305SOL    HW162356   4.069   0.668   5.986 -0.6031 -0.0087  1.4161
20305SOL    HW262357   4.085   0.769   5.875 -0.7432 -2.5802 -1.0517
20306SOL     OW62358   6.148   4.959   2.137 -0.5199  0.1876 -0.1901
20306SOL    HW162359   6.214   4.895   2.166 -1.1862 -0.7340 -0.6647
20306SOL    HW262360   6.067   4.930   2.179 -0.5921  1.4891  0.6348
20307SOL     OW62361   1.292   1.786   4.465 -0.2690  0.1064 -0.4284
20307SOL    HW162362   1.280   1.730   4.389  1.2842  1.6288 -1.8795
20307SOL    HW262363   1.308   1.725   4.538  0.9873 -1.3574 -1.8489
20308SOL     OW62364   3.231   3.116   2.709  0.2759 -0.0076  0.6715
20308SOL    HW162365   3.144   3.090   2.741  1.0740 -2.2057  1.2564
20308SOL    HW262366   3.246   3.201   2.748 -2.4243  1.4486 -1.0878
20309SOL     OW62367   2.781   7.343   9.525  0.2043 -0.5297 -0.6087
20309SOL    HW162368   2.735   7.317   9.446  1.2582 -0.3423 -1.3011
20309SOL    HW262369   2.754   7.434   9.539  0.0829 -0.5355 -0.7952
20310SOL     OW62370   2.325   7.957  10.331 -0.5614 -0.2041 -0.3703
20310SOL    HW162371   2.404   7.981  10.379 -0.6127 -0.4025 -0.1853
20310SOL    HW262372   2.316   7.863  10.344 -0.2867 -0.3612 -1.2091
20311SOL     OW62373   6.556   6.053  11.802  0.0097  0.0879  0.2852
20311SOL    HW162374   6.468   6.081  11.825  0.1512  0.6775  0.1406
20311SOL    HW262375   6.560   6.063  11.707  0.1845 -0.0846  0.2739
20312SOL     OW62376   1.686   3.349   4.002  0.0019  0.2259 -0.3749
20312SOL    HW162377   1.684   3.410   4.076  1.4666  0.8213 -0.7943
20312SOL    HW262378   1.747   3.280   4.030 -0.7614 -0.4592 -0.3622
20313SOL     OW62379   4.035   7.551   8.157  0.1355 -0.4465  0.9951
20313SOL    HW162380   4.104   7.523   8.217  1.6998 -3.2229 -1.7681
20313SOL    HW262381   3.991   7.469   8.132 -0.9014  0.6523 -1.0339
20314SOL     OW62382   3.729   2.742   3.913  0.4328  0.4651 -0.1883
20314SOL    HW162383   3.715   2.704   4.000 -3.1168  0.4134 -0.6595
20314SOL    HW262384   3.820   2.720   3.892  0.9284 -0.8670  2.8165
20315SOL     OW62385   1.468   3.437   2.378  0.2190  0.5514  0.1381
20315SOL    HW162386   1.516   3.508   2.335 -0.1128  0.2541 -0.7490
20315SOL    HW262387   1.535   3.372   2.398  0.2162  0.1291 -1.1135
20316SOL     OW62388   2.860   6.746   8.826  0.4342 -0.0288  0.3461
20316SOL    HW162389   2.812   6.753   8.909  0.2013  1.3714  0.1235
20316SOL    HW262390   2.874   6.837   8.799  1.8052 -0.4383 -0.4145
20317SOL     OW62391   3.937   2.305   6.659 -0.5626 -0.4911 -0.1398
20317SOL    HW162392   4.014   2.352   6.691 -0.5061 -1.6557  1.5502
20317SOL    HW262393   3.863   2.361   6.681 -0.2482  0.4792 -1.4694
20318SOL     OW62394   0.931   3.545   0.300 -0.4150 -0.1416 -0.5329
20318SOL    HW162395   0.959   3.517   0.387  1.7058 -0.1887 -1.1840
20318SOL    HW262396   0.860   3.607   0.317 -0.6770 -0.8518  1.1751
20319SOL     OW62397   6.947   5.225   3.986  0.3228  0.3161 -0.1898
20319SOL    HW162398   6.876   5.242   3.925 -0.2032  0.5628  0.4804
20319SOL    HW262399   6.941   5.296   4.050 -0.0733 -0.7442  0.9931
20320SOL     OW62400   5.159   5.660  10.508  0.3792 -0.1670  0.0263
20320SOL    HW162401   5.099   5.621  10.445 -0.7810 -1.1187  1.6545
20320SOL    HW262402   5.246   5.633  10.479 -0.1686 -1.1076 -0.7839
20321SOL     OW62403   7.048   1.391   5.342  0.3076 -0.4518 -0.2424
20321SOL    HW162404   7.089   1.445   5.274  0.2097  1.1673  0.9281
20321SOL    HW262405   6.974   1.443   5.372 -0.8518 -2.0394 -0.2646
20322SOL     OW62406   5.951   0.923   5.811 -0.3850 -0.2291 -0.1047
20322SOL    HW162407   5.967   0.934   5.904 -3.8167  0.5549  0.5341
20322SOL    HW262408   6.006   0.990   5.769 -1.9887  2.4661  1.7724
20323SOL     OW62409   0.652   3.796   7.300 -0.0721  0.6015  0.5654
20323SOL    HW162410   0.649   3.743   7.221  0.3685  1.5226 -0.0951
20323SOL    HW262411   0.708   3.747   7.360  0.9109  0.6503 -0.2891
20324SOL     OW62412   4.900   5.047  10.535 -0.5526  0.4100 -0.0694
20324SOL    HW162413   4.806   5.051  10.520 -0.6011 -0.0689  0.0953
20324SOL    HW262414   4.910   5.066  10.629 -0.4727  0.6430 -0.1255
20325SOL     OW62415   5.956   1.147   0.562  0.3690 -0.2940 -0.4077
20325SOL    HW162416   5.883   1.208   0.550 -1.0995 -0.6239  4.7061
20325SOL    HW262417   6.028   1.201   0.594  0.1061 -0.7448  1.0213
20326SOL     OW62418   0.198   0.150   2.921 -0.0221 -0.0389 -0.0454
20326SOL    HW162419   0.111   0.125   2.891 -0.9347  3.5206 -0.8558
20326SOL    HW262420   0.238   0.193   2.845  0.9253  1.7384  1.3830
20327SOL     OW62421   4.466   2.083   9.837 -0.5694 -0.2574  0.1433
20327SOL    HW162422   4.479   2.146   9.766 -0.2600 -0.1573  0.2870
20327SOL    HW262423   4.555   2.061   9.865 -0.6856 -0.4969  0.3245
20328SOL     OW62424   4.333   7.551   1.083 -0.1808 -0.5793 -0.3204
20328SOL    HW162425   4.264   7.486   1.086 -0.0788 -0.6487  1.3193
20328SOL    HW262426   4.337   7.578   0.991 -1.4739 -1.5230 -0.6758
20329SOL     OW62427   6.339   4.933   6.743  0.0519 -0.0640 -0.2591
20329SOL    HW162428   6.403   4.883   6.693 -0.5555 -0.6266 -0.4923
20329SOL    HW262429   6.258   4.883   6.735  0.0242 -0.4197  1.6387
20330SOL     OW62430   5.449   4.299   5.118  0.2431 -0.4877 -0.0990
20330SOL    HW162431   5.404   4.381   5.137  1.0772  0.2188 -1.0428
20330SOL    HW262432   5.382   4.231   5.127 -1.2039  0.5866 -2.1112
20331SOL     OW62433   3.657   1.581   5.965  0.1315 -0.4939 -0.2742
20331SOL    HW162434   3.586   1.611   5.909 -0.7853 -0.2647  0.9742
20331SOL    HW262435   3.734   1.630   5.935 -0.7313  0.9892 -0.1655
20332SOL     OW62436   0.818   5.341   8.257 -0.5560  0.0548  0.9031
20332SOL    HW162437   0.767   5.261   8.267 -0.9046 -0.0332 -1.1210
20332SOL    HW262438   0.851   5.338   8.167 -0.5505  2.1556  0.7731
20333SOL     OW62439   3.792   1.906   4.758  0.3028  0.3824  0.5301
20333SOL    HW162440   3.761   1.895   4.668  1.6167  0.6584  0.0277
20333SOL    HW262441   3.771   1.823   4.801 -2.2530  0.9634  0.6038
20334SOL     OW62442   7.569   7.086  11.017  0.6453 -0.1200  0.3271
20334SOL    HW162443   7.554   7.172  10.977  0.5672 -0.4005 -0.2670
20334SOL    HW262444   7.576   7.026  10.942 -1.9077 -1.0652  0.7398
20335SOL     OW62445   1.955   0.801  12.284 -0.2765  0.1605  0.0977
20335SOL    HW162446   1.900   0.768  12.356  1.9801  0.2008  1.9726
20335SOL    HW262447   2.032   0.744  12.286  1.4748  2.4227  0.1137
20336SOL     OW62448   2.911   2.437   9.649  0.6105 -0.3418  0.1610
20336SOL    HW162449   2.865   2.468   9.727 -0.8767  0.6285 -1.0249
20336SOL    HW262450   2.873   2.488   9.577  1.2368 -1.8731 -1.3329
20337SOL     OW62451   1.354   4.138   7.910  0.0182 -0.3637 -0.2293
20337SOL    HW162452   1.341   4.185   7.827  0.0478 -0.7106 -0.4331
20337SOL    HW262453   1.413   4.194   7.960  0.1306 -0.2296 -0.5096
20338SOL     OW62454   3.820   4.550   7.111  0.2009  0.1892 -0.3251
20338SOL    HW162455   3.907   4.510   7.105  0.2507  0.2121  0.2099
20338SOL    HW262456   3.817   4.612   7.039  0.6524  0.2304 -0.3101
20339SOL     OW62457   3.420   3.220   4.368  0.1313  0.7665  0.0915
20339SOL    HW162458   3.328   3.204   4.345  0.6021 -1.0900 -0.6668
20339SOL    HW262459   3.465   3.228   4.285  1.1866 -1.9262  0.2900
20340SOL     OW62460   7.206   4.799   5.647 -0.2215 -0.2392 -0.0635
20340SOL    HW162461   7.294   4.798   5.686 -0.7066  2.1621  1.2741
20340SOL    HW262462   7.205   4.877   5.592 -0.6060 -1.8839 -2.5318
20341SOL     OW62463   4.814   5.142   6.208 -0.0582  0.1822  0.2928
20341SOL    HW162464   4.724   5.173   6.220 -0.2125  0.4974 -1.4364
20341SOL    HW262465   4.804   5.049   6.187  0.0131  0.2332  0.0327
20342SOL     OW62466   4.643   7.765   7.202  0.3359  0.3369 -0.7047
20342SOL    HW162467   4.710   7.733   7.142 -1.9615  0.2003 -3.4040
20342SOL    HW262468   4.635   7.858   7.181  1.6631  1.0886  1.7309
20343SOL     OW62469   1.468   3.037   3.445 -0.0952  1.0412  0.6037
20343SOL    HW162470   1.391   3.032   3.502  0.0334  0.3342  0.7230
20343SOL    HW262471   1.505   3.123   3.462 -0.5925  1.2053  0.8921
20344SOL     OW62472   6.335   5.042   1.826 -0.6347  0.2219 -0.0438
20344SOL    HW162473   6.387   4.982   1.879  1.3296  0.8983 -1.1045
20344SOL    HW262474   6.379   5.044   1.741 -2.5990  0.6174 -1.1205
20345SOL     OW62475   2.053   6.492  11.916  0.3934  0.1984  0.7103
20345SOL    HW162476   2.058   6.577  11.873 -1.1239  0.1662  0.4044
20345SOL    HW262477   2.134   6.448  11.893  0.0598  0.5701 -1.3329
20346SOL     OW62478   3.346   3.347   7.430  0.3712 -0.6492  0.1936
20346SOL    HW162479   3.335   3.258   7.464 -0.6477 -0.5787  0.0906
20346SOL    HW262480   3.441   3.359   7.423  0.5136 -1.8335 -0.0738
20347SOL     OW62481   0.817   1.734   7.291  0.0603 -0.7366  0.5507
20347SOL    HW162482   0.815   1.652   7.341  0.7425 -0.6528  0.7202
20347SOL    HW262483   0.815   1.803   7.357 -2.4750 -0.5422  0.3918
20348SOL     OW62484   5.731   6.966   4.822  0.4925  0.1634  0.5902
20348SOL    HW162485   5.816   6.958   4.778  0.0504  0.2791 -0.3193
20348SOL    HW262486   5.714   7.060   4.825  1.1764  0.2610  2.3557
20349SOL     OW62487   7.452   0.238   2.891  0.6018 -0.3197  0.2069
20349SOL    HW162488   7.366   0.221   2.852  0.5268  1.3979 -0.4831
20349SOL    HW262489   7.435   0.251   2.984 -0.1267  1.2891 -0.1118
20350SOL     OW62490   3.608   4.429   3.487 -0.1591  0.3123  1.1160
20350SOL    HW162491   3.644   4.438   3.398 -0.8121 -2.2617  0.5119
20350SOL    HW262492   3.659   4.491   3.539  0.8440  1.2833 -0.8710
20351SOL     OW62493   5.760   6.722   2.186  0.6476  0.0858  0.3330
20351SOL    HW162494   5.843   6.761   2.214 -0.8723  2.5977  1.7344
20351SOL    HW262495   5.722   6.686   2.266 -0.1091 -0.0429 -0.0736
20352SOL     OW62496   5.377   6.598   4.052  0.0980  0.5235 -0.3836
20352SOL    HW162497   5.439   6.652   4.101 -0.5652  1.3789 -0.4655
20352SOL    HW262498   5.291   6.622   4.088 -0.2040 -0.5112 -0.3980
20353SOL     OW62499   6.170   3.692   5.717 -0.1737  0.2878 -0.4536
20353SOL    HW162500   6.133   3.771   5.677 -1.8430  0.5215  1.3743
20353SOL    HW262501   6.259   3.718   5.743 -0.6662  1.5645  0.0447
20354SOL     OW62502   0.831   7.016   3.932  0.6554  0.2403  0.7660
20354SOL    HW162503   0.858   6.933   3.893  2.2919  0.2087  1.8253
20354SOL    HW262504   0.750   7.039   3.888 -0.9018 -2.8560  1.7036
20355SOL     OW62505   1.070   1.408  11.937  0.8057 -0.4935 -0.4349
20355SOL    HW162506   1.015   1.486  11.937  0.5241 -0.6706 -1.6753
20355SOL    HW262507   1.122   1.415  12.017 -0.3355  0.1613  0.2649
20356SOL     OW62508   0.363   4.966   7.474  0.1977 -0.1056  0.0125
20356SOL    HW162509   0.432   4.967   7.540  0.6500 -0.1527 -0.4514
20356SOL    HW262510   0.410   4.968   7.390 -0.3866  1.4765 -0.3088
20357SOL     OW62511   3.082   7.463   3.611 -0.6612 -0.2569  0.3205
20357SOL    HW162512   3.146   7.533   3.620 -1.4083  0.6542 -1.0691
20357SOL    HW262513   3.130   7.392   3.568  0.2327 -0.8421  2.1856
20358SOL     OW62514   1.421   4.019   5.746 -0.3440 -0.1721  0.4926
20358SOL    HW162515   1.506   3.978   5.730  0.3827  0.9821  1.2948
20358SOL    HW262516   1.425   4.103   5.699 -0.4548  0.5603  1.7547
20359SOL     OW62517   6.096   1.300   1.631  0.3123 -0.1325 -0.4319
20359SOL    HW162518   6.105   1.394   1.644 -0.5776 -0.0786 -0.2011
20359SOL    HW262519   6.029   1.290   1.564 -0.3041 -0.6235  0.2418
20360SOL     OW62520   3.892   7.484   0.937 -0.3201 -0.7457 -0.2409
20360SOL    HW162521   3.950   7.556   0.913 -0.8697 -0.5286 -0.9624
20360SOL    HW262522   3.805   7.522   0.938 -0.6579 -1.4610 -0.9391
20361SOL     OW62523   0.411   3.558   0.024 -0.3932 -0.6512 -0.2081
20361SOL    HW162524   0.435   3.558   0.116 -4.2186  0.1526  0.9462
20361SOL    HW262525   0.358   3.480   0.012 -0.2648 -0.5483 -1.6770
20362SOL     OW62526   1.002   6.856  10.742 -0.4982 -0.1097 -0.2563
20362SOL    HW162527   0.936   6.922  10.720  3.5894  3.4236 -3.7932
20362SOL    HW262528   1.055   6.898  10.810 -0.7793 -2.1780  1.3369
20363SOL     OW62529   5.905   4.804   4.325 -0.4231  0.1900 -0.1486
20363SOL    HW162530   5.971   4.735   4.320 -0.5184  0.0968 -0.1219
20363SOL    HW262531   5.955   4.885   4.331 -0.2514 -0.0106  2.1091
20364SOL     OW62532   1.383   5.454   5.772  0.4550 -0.5258  0.4427
20364SOL    HW162533   1.337   5.537   5.771  0.4593 -0.4960 -1.3213
20364SOL    HW262534   1.458   5.467   5.713  0.3165 -1.8261 -0.0619
20365SOL     OW62535   3.181   0.186   9.538  0.2316  0.4989 -1.2036
20365SOL    HW162536   3.251   0.147   9.590 -2.3060 -0.7128  1.6204
20365SOL    HW262537   3.185   0.280   9.558  1.8810  0.7153 -2.3105
20366SOL     OW62538   0.301   1.075   5.510 -0.0441 -0.0426  0.0700
20366SOL    HW162539   0.291   0.981   5.527 -0.0254 -0.1720 -0.6274
20366SOL    HW262540   0.378   1.082   5.453  0.2866  0.4483  0.5608
20367SOL     OW62541   1.839   5.316   6.445 -0.0755 -0.3166  0.1192
20367SOL    HW162542   1.759   5.263   6.446  1.4401 -2.7267  0.9556
20367SOL    HW262543   1.807   5.406   6.450 -2.7349 -1.2241  1.6766
20368SOL     OW62544   7.871   0.907   0.409  0.0271  0.0503 -0.2247
20368SOL    HW162545   7.827   0.848   0.348 -1.9121 -0.2658  1.3757
20368SOL    HW262546   7.857   0.994   0.373 -4.0292  0.2057  1.3055
20369SOL     OW62547   0.942   5.431   9.541 -0.1164  0.2049 -0.2814
20369SOL    HW162548   0.972   5.507   9.492  2.9717 -0.3930  0.4463
20369SOL    HW262549   0.931   5.463   9.631  0.5797 -0.0518 -0.0989
20370SOL     OW62550   0.584   5.439   3.810 -0.6023  0.0317  0.1369
20370SOL    HW162551   0.595   5.534   3.813 -1.0991  0.2343 -2.2680
20370SOL    HW262552   0.552   5.416   3.897 -3.1214  2.4703  0.0285
20371SOL     OW62553   6.023   1.964   5.147 -0.0382 -0.1574 -0.2739
20371SOL    HW162554   5.996   1.894   5.088  0.5709 -0.0864 -0.6481
20371SOL    HW262555   6.040   2.039   5.089 -0.2097  0.1500  0.0715
20372SOL     OW62556   0.759   6.160   2.792  0.1703 -0.1788 -0.0677
20372SOL    HW162557   0.716   6.075   2.787 -0.3184  0.0323  0.4823
20372SOL    HW262558   0.721   6.202   2.869  0.8808  0.2788  0.0440
20373SOL     OW62559   0.057   0.841   3.952  0.2903 -0.2298 -0.3706
20373SOL    HW162560   0.084   0.930   3.932 -0.9402  0.5730  1.3259
20373SOL    HW262561   0.130   0.803   4.000 -0.0282  0.6237  0.8181
20374SOL     OW62562   7.695   0.553   2.623  0.4345  0.2170 -0.7980
20374SOL    HW162563   7.691   0.557   2.528 -0.9086  1.2802 -0.7264
20374SOL    HW262564   7.664   0.639   2.652 -1.5368 -0.8914  0.6325
20375SOL     OW62565   1.351   4.652   2.073 -0.6416  0.0938 -0.2293
20375SOL    HW162566   1.333   4.744   2.089  0.7132  0.2047  0.8598
20375SOL    HW262567   1.358   4.613   2.160 -0.1382 -0.8124 -0.6569
20376SOL     OW62568   5.868   5.883   1.229 -0.5029 -0.0503  0.0353
20376SOL    HW162569   5.959   5.909   1.243 -1.0582  1.4593  1.0427
20376SOL    HW262570   5.848   5.826   1.303  0.0483 -1.6420 -0.9977
20377SOL     OW62571   4.837   5.773   7.855 -0.2561 -0.2630 -0.2970
20377SOL    HW162572   4.776   5.742   7.921 -0.6105  0.1815 -0.4060
20377SOL    HW262573   4.781   5.816   7.790  0.1428 -0.1578 -0.5718
20378SOL     OW62574   6.899   1.367   4.930 -0.1412 -0.2065 -0.0038
20378SOL    HW162575   6.912   1.448   4.881 -2.7207  0.0718 -0.3741
20378SOL    HW262576   6.912   1.298   4.866 -3.2467  0.1446 -1.1719
20379SOL     OW62577   7.883   0.067  12.425 -0.1114 -0.1680  0.1027
20379SOL    HW162578   7.973   0.050  12.396 -0.2680  0.5319 -0.8400
20379SOL    HW262579   7.829   0.007  12.374 -0.4012  1.1670 -1.2659
20380SOL     OW62580   3.035   7.321  10.856  0.1256 -0.4290  0.3207
20380SOL    HW162581   3.038   7.415  10.837  1.1752 -0.7247 -1.1440
20380SOL    HW262582   2.943   7.297  10.846  0.1041  0.1400 -0.9921
20381SOL     OW62583   4.626   1.755  11.735  0.0392  0.2645  0.0255
20381SOL    HW162584   4.570   1.819  11.780 -1.1691 -1.0762  0.5115
20381SOL    HW262585   4.587   1.670  11.756  0.4549 -0.5390 -2.1592
20382SOL     OW62586   1.228   2.992   4.275 -0.1359 -0.1251 -0.1647
20382SOL    HW162587   1.321   2.969   4.283 -0.1268  0.0193  0.1850
20382SOL    HW262588   1.182   2.908   4.273  0.0017 -0.1971 -0.3598
20383SOL     OW62589   5.100   2.803   3.313  0.0027 -0.2773 -0.0177
20383SOL    HW162590   5.066   2.890   3.291 -0.0928  0.7381  3.5163
20383SOL    HW262591   5.035   2.742   3.277 -0.4063  1.1100 -1.7640
20384SOL     OW62592   4.686   3.484  11.291 -0.4044  0.3867 -0.0568
20384SOL    HW162593   4.767   3.463  11.337  0.0392  1.8554 -0.1144
20384SOL    HW262594   4.620   3.486  11.360 -0.7003 -2.0703 -0.1729
20385SOL     OW62595   3.576   7.120   0.588  0.1905  0.0362  0.1359
20385SOL    HW162596   3.542   7.189   0.645  0.1859  0.0764  0.0846
20385SOL    HW262597   3.657   7.157   0.552 -1.0765  1.0315 -1.8800
20386SOL     OW62598   1.815   1.328  11.095 -0.5618 -0.0355 -0.1192
20386SOL    HW162599   1.825   1.304  11.002 -0.3434  0.2733 -0.1739
20386SOL    HW262600   1.891   1.382  11.115 -0.9276  0.4197  0.0713
20387SOL     OW62601   4.716   7.508   8.361  0.1715  0.1285 -0.1488
20387SOL    HW162602   4.690   7.454   8.287 -1.9577  0.3366  0.3822
20387SOL    HW262603   4.709   7.598   8.329 -1.7484  0.2626  0.5426
20388SOL     OW62604   1.066   6.344   2.837 -0.1034  0.3507 -0.2620
20388SOL    HW162605   1.114   6.406   2.892  0.4737  0.1730 -0.5548
20388SOL    HW262606   0.991   6.318   2.890  0.1111  0.6512  0.1948
20389SOL     OW62607   7.709   6.707   7.980 -0.0778 -0.4600 -0.3802
20389SOL    HW162608   7.798   6.695   8.013 -0.3398 -3.8133 -0.4925
20389SOL    HW262609   7.654   6.656   8.040 -1.4172 -1.2514 -2.1667
20390SOL     OW62610   0.158   7.588  10.209  0.1438  0.1515  0.8135
20390SOL    HW162611   0.085   7.542  10.250  0.0374  0.3791  0.8830
20390SOL    HW262612   0.118   7.663  10.165  0.0348 -0.9863 -1.1440
20391SOL     OW62613   3.948   0.653   2.995 -0.1721  0.1925  0.0063
20391SOL    HW162614   3.856   0.628   2.993  0.0211 -0.5476 -0.2060
20391SOL    HW262615   3.986   0.612   2.917  0.3322  0.5023  0.0797
20392SOL     OW62616   7.630   1.911   6.000  0.5467  0.2117 -0.3142
20392SOL    HW162617   7.688   1.982   6.027 -0.0607  0.8862 -0.7833
20392SOL    HW262618   7.543   1.938   6.029  0.5615 -1.2584  1.3198
20393SOL     OW62619   0.219   1.910   3.636  0.6186 -0.2265 -0.0620
20393SOL    HW162620   0.198   1.981   3.696  0.9557  1.6747 -2.0844
20393SOL    HW262621   0.314   1.910   3.631  0.6216 -0.8343 -0.0824
20394SOL     OW62622   7.171   5.531   0.876  0.1950  0.3930 -0.2085
20394SOL    HW162623   7.094   5.561   0.925 -0.0347 -0.4401 -0.0567
20394SOL    HW262624   7.244   5.543   0.937  0.0650  0.3702 -0.0487
20395SOL     OW62625   2.898   2.039   3.473 -0.5143  0.8697  0.0206
20395SOL    HW162626   2.863   1.961   3.431 -0.3883  0.2345  1.0706
20395SOL    HW262627   2.957   2.006   3.540  2.1962  1.8918 -1.6699
20396SOL     OW62628   7.213   5.238   8.806 -0.3166 -0.4205  0.2381
20396SOL    HW162629   7.166   5.214   8.726 -0.5888 -1.8269  0.7910
20396SOL    HW262630   7.188   5.171   8.870  1.2724 -0.3332  0.9944
20397SOL     OW62631   0.007   2.433   1.307 -0.1805 -0.3839 -0.1381
20397SOL    HW162632  -0.065   2.410   1.248  0.1694 -0.0223 -0.7155
20397SOL    HW262633   0.040   2.516   1.272  0.8820 -0.8313 -0.2095
20398SOL     OW62634   4.386   4.217  12.412  0.1238  0.5283  0.1224
20398SOL    HW162635   4.294   4.211  12.437  0.3184  0.4345  0.8396
20398SOL    HW262636   4.428   4.262  12.485  0.7509  0.0529  0.0611
20399SOL     OW62637   2.768   3.958   2.841 -0.2325  0.6749  0.0841
20399SOL    HW162638   2.839   3.894   2.838 -1.1863 -0.4453 -3.3173
20399SOL    HW262639   2.811   4.042   2.855  1.5449 -0.1968  0.0980
20400SOL     OW62640   5.534   6.329   4.547  0.6090 -0.1189  0.2327
20400SOL    HW162641   5.548   6.386   4.623 -0.4130 -0.7721  0.9259
20400SOL    HW262642   5.573   6.377   4.474 -0.3338  1.5322  0.7712
20401SOL     OW62643   7.115   3.969   7.815  0.0210 -0.6268 -0.1843
20401SOL    HW162644   7.056   3.940   7.886  1.2818  0.7669  1.5233
20401SOL    HW262645   7.101   4.063   7.809  2.8890 -0.0013  1.1808
20402SOL     OW62646   6.858   4.162   8.019 -0.1365  0.2177  0.3861
20402SOL    HW162647   6.880   4.207   8.101  0.4447 -1.3204  1.1381
20402SOL    HW262648   6.839   4.232   7.957  1.2042  1.4999  1.3401
20403SOL     OW62649   2.539   7.140  11.919  0.5814  0.3673 -0.0790
20403SOL    HW162650   2.608   7.199  11.888  0.8598 -0.3639 -0.9296
20403SOL    HW262651   2.466   7.154  11.858  0.2940  0.5349  0.3055
20404SOL     OW62652   1.371   3.493   3.548  0.1505 -0.0303 -0.7062
20404SOL    HW162653   1.313   3.436   3.598  0.8420 -0.1273 -0.0047
20404SOL    HW262654   1.378   3.573   3.599  2.2571 -0.7786  0.3028
20405SOL     OW62655   5.690   5.633   3.665 -0.2672  0.4257  0.4217
20405SOL    HW162656   5.641   5.711   3.693 -1.3586 -0.5806  1.4649
20405SOL    HW262657   5.638   5.560   3.699  0.8757 -0.7471 -0.3007
20406SOL     OW62658   1.735   7.453   5.558  0.2855  0.5883  0.7159
20406SOL    HW162659   1.779   7.376   5.595 -0.4269 -0.1391  0.0841
20406SOL    HW262660   1.721   7.510   5.633 -0.4363 -0.5212  1.4523
20407SOL     OW62661   1.042   4.572   2.531 -0.3271  0.4938 -0.1399
20407SOL    HW162662   1.111   4.588   2.466  0.0206 -0.8550 -0.1360
20407SOL    HW262663   1.009   4.485   2.509 -0.8726  0.4305  0.9065
20408SOL     OW62664   1.291   1.629   7.531  0.1333  0.2320 -0.3313
20408SOL    HW162665   1.281   1.550   7.477 -1.3786 -0.0289  0.2621
20408SOL    HW262666   1.342   1.600   7.606 -0.1225 -0.0997 -0.2831
20409SOL     OW62667   1.835   0.907  10.393  0.3798 -0.6266  0.1522
20409SOL    HW162668   1.767   0.930  10.330  0.2087  0.8976  0.8452
20409SOL    HW262669   1.912   0.956  10.365  1.2182 -2.2938 -0.5875
20410SOL     OW62670   2.449   5.605  11.127 -0.1180 -0.2657 -0.1855
20410SOL    HW162671   2.413   5.516  11.129 -0.9577  0.0532 -0.5292
20410SOL    HW262672   2.469   5.625  11.218 -0.7416 -0.4901  0.0062
20411SOL     OW62673   2.696   2.057   9.683  0.7215 -0.0525 -0.0123
20411SOL    HW162674   2.608   2.082   9.713  1.1865  1.2422  0.3586
20411SOL    HW262675   2.738   2.018   9.759  1.9800  3.4331  1.3200
20412SOL     OW62676   7.633   5.751  10.195  0.3330 -0.1399 -0.0108
20412SOL    HW162677   7.638   5.741  10.100  0.7028  0.4538 -0.0594
20412SOL    HW262678   7.549   5.712  10.219  0.3460 -0.5059 -0.5497
20413SOL     OW62679   1.022   6.796  10.225 -0.5343 -0.1159  0.5777
20413SOL    HW162680   1.052   6.831  10.309 -2.7328 -0.9527  1.7860
20413SOL    HW262681   0.981   6.871  10.181  0.8479  0.3851  0.0927
20414SOL     OW62682   5.781   0.013  10.949 -0.3790 -0.1048 -0.3675
20414SOL    HW162683   5.837   0.081  10.911  0.6460 -1.0699 -0.6356
20414SOL    HW262684   5.691   0.043  10.932 -0.0055  1.9745  0.9632
20415SOL     OW62685   1.122   0.022   7.823 -0.5481  0.2151  0.0431
20415SOL    HW162686   1.085   0.084   7.886 -0.5596 -0.4707  0.7243
20415SOL    HW262687   1.154  -0.050   7.877 -0.7021 -0.4513 -0.7468
20416SOL     OW62688   3.042   5.635  11.440  0.0365  0.5070  0.0121
20416SOL    HW162689   2.950   5.623  11.416  0.5329  0.4284 -2.0546
20416SOL    HW262690   3.089   5.624  11.358  1.8324  1.4220  0.8683
20417SOL     OW62691   2.919   2.271   8.161 -0.0608  0.3301  0.1183
20417SOL    HW162692   2.867   2.193   8.183 -0.1183 -0.1333 -1.5608
20417SOL    HW262693   2.909   2.280   8.066 -0.3073  2.5746  0.3202
20418SOL     OW62694   5.863   4.533   1.213 -0.8665  0.7861 -0.6952
20418SOL    HW162695   5.770   4.516   1.195 -0.5328  0.5717 -2.3470
20418SOL    HW262696   5.895   4.576   1.134  0.2129  1.8395  0.2767
20419SOL     OW62697   0.652   3.551   5.078 -0.2771  0.1945 -0.8476
20419SOL    HW162698   0.690   3.587   4.998  1.1046  1.2520  0.2345
20419SOL    HW262699   0.722   3.496   5.115 -0.5728  0.4046  0.0551
20420SOL     OW62700   4.821   0.136   2.885 -0.0801 -0.4459 -0.8608
20420SOL    HW162701   4.856   0.225   2.886 -2.3255  0.5606  1.6301
20420SOL    HW262702   4.766   0.133   2.807  2.7190 -0.9468 -2.9373
20421SOL     OW62703   2.448   5.817  10.963  0.1024 -0.2302  0.3314
20421SOL    HW162704   2.355   5.827  10.944  0.6683  0.4811 -2.7142
20421SOL    HW262705   2.452   5.768  11.045 -2.9148  0.5960  1.0693
20422SOL     OW62706   2.712   2.475   5.383  0.1903  0.0991  0.0799
20422SOL    HW162707   2.617   2.468   5.369  0.3610  0.2975 -1.2225
20422SOL    HW262708   2.732   2.567   5.365  0.8857 -0.3143 -1.3643
20423SOL     OW62709   0.468   6.220   0.267 -0.4752 -0.6067 -0.2030
20423SOL    HW162710   0.375   6.202   0.278 -0.4073 -2.3943 -1.9650
20423SOL    HW262711   0.497   6.157   0.201  1.8736  0.2711 -0.1075
20424SOL     OW62712   3.567   7.159   0.951  0.1298  0.3264  1.2993
20424SOL    HW162713   3.520   7.212   1.016  0.2473  0.3132  1.3953
20424SOL    HW262714   3.625   7.221   0.907  2.3014 -0.1738  3.2605
20425SOL     OW62715   6.708   0.424  12.391 -0.3341  0.4929  0.4284
20425SOL    HW162716   6.665   0.458  12.469 -0.3917 -1.3749  1.2582
20425SOL    HW262717   6.799   0.453  12.399 -0.2797  0.0793  1.3298
20426SOL     OW62718   4.003   1.361   2.598 -0.0775  0.0501  1.0422
20426SOL    HW162719   3.926   1.345   2.653 -0.0937  0.3399  1.1071
20426SOL    HW262720   3.996   1.454   2.574  0.5581  0.2338  1.5334
20427SOL     OW62721   1.014   3.018   1.899 -0.5665  0.0203 -0.1325
20427SOL    HW162722   1.023   3.090   1.961  0.4560  0.2106 -0.4793
20427SOL    HW262723   0.956   3.052   1.831 -0.0754  0.5438 -0.3044
20428SOL     OW62724   0.904   2.493   6.830  0.6186 -0.3585  0.5228
20428SOL    HW162725   0.964   2.564   6.853  1.3682 -1.1065  0.9802
20428SOL    HW262726   0.867   2.464   6.914  0.4503 -0.6132  0.3636
20429SOL     OW62727   6.284   3.019   2.670 -0.3689  0.4137 -0.1661
20429SOL    HW162728   6.358   2.993   2.724  0.1804  0.7419 -0.7449
20429SOL    HW262729   6.259   2.940   2.623  0.8943  0.7356 -1.4504
20430SOL     OW62730   4.368   7.402   2.257 -0.2653  0.5553 -0.3809
20430SOL    HW162731   4.290   7.363   2.218  0.6044  1.0748 -2.7953
20430SOL    HW262732   4.430   7.412   2.184  1.9107  0.5870  1.3482
20431SOL     OW62733   6.370   7.836   7.512 -0.2565  0.1925 -0.1393
20431SOL    HW162734   6.416   7.864   7.433  0.4960 -0.5579  0.0113
20431SOL    HW262735   6.319   7.760   7.485  0.0323 -0.0893  0.0883
20432SOL     OW62736   1.319   7.916   0.951 -0.1106  0.7406  0.0115
20432SOL    HW162737   1.263   7.979   0.906  0.2312  0.0219 -1.4611
20432SOL    HW262738   1.408   7.946   0.935  0.0172  0.4415  0.1440
20433SOL     OW62739   6.699   1.968  11.733 -0.2548  0.1127  0.1581
20433SOL    HW162740   6.767   1.901  11.725 -3.0904 -2.8264 -1.1498
20433SOL    HW262741   6.681   1.972  11.827 -1.0412 -2.1482  0.1632
20434SOL     OW62742   1.686   5.672  10.962 -0.1489  0.3818 -0.2313
20434SOL    HW162743   1.610   5.648  11.015 -0.6830  0.7749 -0.8063
20434SOL    HW262744   1.679   5.619  10.883  0.0410  0.5987 -0.3961
20435SOL     OW62745   0.224   3.502   3.048 -0.3617 -0.3670 -0.2716
20435SOL    HW162746   0.212   3.474   3.139  0.6738  1.7793  0.5793
20435SOL    HW262747   0.297   3.448   3.017  0.1010 -0.2518  0.5811
20436SOL     OW62748   1.357   6.581   6.806 -0.1346 -0.3529 -0.0701
20436SOL    HW162749   1.278   6.576   6.860 -0.0673 -1.0091 -0.0179
20436SOL    HW262750   1.326   6.599   6.718 -0.1823  1.7384  0.3413
20437SOL     OW62751   2.250   2.157  10.329 -0.3180 -0.0345  1.0193
20437SOL    HW162752   2.197   2.236  10.320 -0.5967 -0.0054  2.6885
20437SOL    HW262753   2.274   2.135  10.239 -0.3070  1.8890  0.4934
20438SOL     OW62754   6.768   5.081   8.340 -0.4099  0.0028 -0.6815
20438SOL    HW162755   6.824   5.005   8.324 -1.3007 -1.1100  1.1680
20438SOL    HW262756   6.761   5.087   8.435 -0.6685  2.2142 -0.7711
20439SOL     OW62757   2.094   0.506   9.651  0.9867  0.4496  0.1739
20439SOL    HW162758   2.057   0.589   9.622  0.9464  1.3307  2.5330
20439SOL    HW262759   2.177   0.499   9.603 -0.2758  0.4335 -2.1200
20440SOL     OW62760   5.824   7.312   4.656 -0.0489 -0.2011 -0.4693
20440SOL    HW162761   5.777   7.372   4.598  0.6916  1.0293  0.1665
20440SOL    HW262762   5.917   7.327   4.636  0.2504  0.5917  1.3349
20441SOL     OW62763   6.940   5.778   6.495  0.1035 -0.2884 -0.2635
20441SOL    HW162764   7.019   5.811   6.537 -0.8513  0.3461  1.0791
20441SOL    HW262765   6.932   5.831   6.415 -0.2104  1.2677  0.7589
20442SOL     OW62766   7.769   7.756   6.335  0.5679 -0.3787  0.1928
20442SOL    HW162767   7.859   7.732   6.314  0.6333  0.3634 -0.4508
20442SOL    HW262768   7.765   7.850   6.314 -0.3130 -0.3794  0.3442
20443SOL     OW62769   4.015   4.045   5.805  0.0435  0.2875 -0.1576
20443SOL    HW162770   3.975   3.963   5.837  1.8401 -1.2851 -1.7039
20443SOL    HW262771   3.978   4.057   5.718  0.9820  0.2260 -0.5728
20444SOL     OW62772   0.077   1.240  12.146  0.1827  0.0549 -0.4195
20444SOL    HW162773   0.122   1.307  12.094 -1.3244  1.0059 -0.5649
20444SOL    HW262774   0.082   1.161  12.093  1.4914  0.1890 -0.5149
20445SOL     OW62775   0.028   1.631   4.726  0.2602  0.1928  0.4347
20445SOL    HW162776  -0.039   1.662   4.666  1.0165 -0.1500 -0.6179
20445SOL    HW262777  -0.019   1.613   4.808 -0.9448 -0.1284 -0.3019
20446SOL     OW62778   4.744   1.300  11.883  0.1984 -0.1422 -0.0413
20446SOL    HW162779   4.708   1.286  11.795 -0.4014 -1.8314  0.4361
20446SOL    HW262780   4.782   1.388  11.879  1.2703 -0.6148 -2.3583
20447SOL     OW62781   3.998   7.281   6.325 -0.2361 -0.2890  0.2876
20447SOL    HW162782   4.026   7.202   6.280  2.7666  0.6907  0.2409
20447SOL    HW262783   3.988   7.347   6.256 -1.5950 -0.2680  0.4593
20448SOL     OW62784   4.649   4.970   8.933  0.1443  0.4195  0.1605
20448SOL    HW162785   4.613   4.994   8.848  0.1753  1.2385  0.3691
20448SOL    HW262786   4.596   5.019   8.996  0.7633  0.6089  0.5471
20449SOL     OW62787   5.008   6.055   0.634 -0.6170  0.1149 -0.1031
20449SOL    HW162788   5.084   6.104   0.666 -0.0179 -1.1353  0.4329
20449SOL    HW262789   4.934   6.112   0.653  0.1007  1.0377  0.0470
20450SOL     OW62790   7.309   3.677   9.014 -0.0633  0.0653 -0.0949
20450SOL    HW162791   7.368   3.726   9.071  0.6749 -1.1853  0.2620
20450SOL    HW262792   7.362   3.656   8.937 -0.2115 -0.5571 -0.0373
20451SOL     OW62793   7.248   0.538   3.028  0.5439  0.0721 -0.5285
20451SOL    HW162794   7.265   0.459   3.081  0.0303 -1.4732 -2.5303
20451SOL    HW262795   7.153   0.542   3.021  0.5053  1.5326  0.4211
20452SOL     OW62796   4.844   6.244   2.979 -0.1861  0.3037 -0.8356
20452SOL    HW162797   4.924   6.218   3.024 -1.0022 -0.0826  0.4262
20452SOL    HW262798   4.773   6.212   3.034 -1.2401  2.1013 -1.0603
20453SOL     OW62799   0.352   6.521   9.981 -0.6698 -0.2909  0.1379
20453SOL    HW162800   0.428   6.577   9.997 -1.0225 -0.0361  1.0091
20453SOL    HW262801   0.343   6.519   9.886 -0.0269  0.2880  0.0544
20454SOL     OW62802   7.044   2.138   8.306 -0.4772  0.6179 -0.6902
20454SOL    HW162803   7.064   2.186   8.387  0.5804  0.3172 -0.7586
20454SOL    HW262804   7.109   2.170   8.243 -0.3450 -0.2294 -0.9959
20455SOL     OW62805   4.543   7.405   0.239  0.5790  0.2958 -0.1067
20455SOL    HW162806   4.526   7.455   0.319 -0.5793  0.6678 -0.5519
20455SOL    HW262807   4.476   7.437   0.177  0.8342 -0.6764 -0.9049
20456SOL     OW62808   5.477   4.366  11.119  0.3761 -0.7964  0.4691
20456SOL    HW162809   5.466   4.271  11.123 -0.0623 -0.8034 -0.6550
20456SOL    HW262810   5.391   4.401  11.140  0.3451 -0.6684  0.1376
20457SOL     OW62811   6.658   1.154   5.590 -0.0749 -0.2029  0.3529
20457SOL    HW162812   6.610   1.116   5.517 -0.6761 -0.9571  1.1176
20457SOL    HW262813   6.656   1.249   5.574 -1.7838 -0.2166  0.3458
20458SOL     OW62814   6.309   5.966   9.236  0.4813 -0.6470  0.0491
20458SOL    HW162815   6.328   5.872   9.227 -1.0724 -0.8118 -2.3990
20458SOL    HW262816   6.380   6.009   9.189  0.4425 -0.6733 -0.0336
20459SOL     OW62817   7.735   1.515   1.251 -0.0436  0.0333  0.3238
20459SOL    HW162818   7.695   1.436   1.289 -1.8717  0.6751 -0.1445
20459SOL    HW262819   7.819   1.524   1.296  0.5735 -2.5787 -0.1197
20460SOL     OW62820   7.583   1.520  10.862 -0.5037 -0.1090  0.2353
20460SOL    HW162821   7.631   1.600  10.883 -3.5779  1.2059  3.1136
20460SOL    HW262822   7.587   1.469  10.943 -1.6834 -1.1715 -0.3478
20461SOL     OW62823   5.702   4.566   6.328 -0.3297  0.1824  0.0460
20461SOL    HW162824   5.740   4.621   6.260 -0.4888  1.0007  0.6122
20461SOL    HW262825   5.671   4.489   6.281 -0.3955  0.7167 -0.8041
20462SOL     OW62826   2.755   1.580   7.857 -0.0351 -0.1310 -0.3637
20462SOL    HW162827   2.776   1.654   7.798 -0.0366 -1.6269 -2.3524
20462SOL    HW262828   2.841   1.547   7.884 -0.0221  0.2158  0.0181
20463SOL     OW62829   6.553   1.813   7.333  0.1342 -0.1230 -0.1660
20463SOL    HW162830   6.579   1.803   7.425  0.8679  1.5854 -0.1451
20463SOL    HW262831   6.561   1.726   7.296  2.3832 -0.3816  0.7807
20464SOL     OW62832   4.360   5.999   7.026  0.4752 -0.6397  0.3295
20464SOL    HW162833   4.308   6.021   6.949 -1.5420 -0.7397  1.5986
20464SOL    HW262834   4.333   6.062   7.093  0.0356 -2.3259  1.8140
20465SOL     OW62835   1.842   2.327   7.077 -0.1484  0.2320  0.0369
20465SOL    HW162836   1.916   2.365   7.029 -1.1904  0.6138 -1.3491
20465SOL    HW262837   1.881   2.259   7.131  1.1870  0.2499 -0.8398
20466SOL     OW62838   0.842   2.309   3.899 -0.4498  0.9130  0.8302
20466SOL    HW162839   0.801   2.271   3.978  1.0853  0.7403  1.5874
20466SOL    HW262840   0.917   2.252   3.883 -0.7628  0.9365 -0.8113
20467SOL     OW62841   1.983   6.671  10.800 -0.2165  0.4080  0.1489
20467SOL    HW162842   2.071   6.659  10.765 -0.9901 -0.7395 -1.5185
20467SOL    HW262843   1.950   6.582  10.814 -1.1333  0.8149  0.7128
20468SOL     OW62844   6.002   7.124   6.119 -0.2103  0.3322 -0.3212
20468SOL    HW162845   6.046   7.094   6.039  0.0572 -0.2708  0.0478
20468SOL    HW262846   5.909   7.112   6.099 -0.1121 -1.0453 -0.0913
20469SOL     OW62847   5.839   7.809   4.881  0.3025  0.2457  0.2479
20469SOL    HW162848   5.840   7.827   4.975 -0.4318  2.3364 -0.0808
20469SOL    HW262849   5.931   7.819   4.854  0.4536  0.0171  0.6671
20470SOL     OW62850   4.342   5.226   1.361  0.3178 -0.2259  0.5267
20470SOL    HW162851   4.354   5.135   1.389 -0.7024 -0.9650 -1.2800
20470SOL    HW262852   4.418   5.272   1.396  0.1205 -1.4383  2.7489
20471SOL     OW62853   5.161   5.014   0.838 -0.0671 -1.2525  0.3721
20471SOL    HW162854   5.075   4.974   0.845 -0.2723 -0.9428 -0.3009
20471SOL    HW262855   5.149   5.087   0.778  0.5275 -0.8182  0.7642
20472SOL     OW62856   3.429   1.701   4.185 -0.3087  0.4148 -0.7045
20472SOL    HW162857   3.354   1.663   4.231 -0.0026  1.2921  0.5586
20472SOL    HW262858   3.434   1.651   4.104 -1.4713 -0.5207 -0.2385
20473SOL     OW62859   6.981   3.165   7.935 -0.0676 -0.0583 -0.7266
20473SOL    HW162860   6.972   3.149   7.841  0.5891 -0.6550 -0.7022
20473SOL    HW262861   7.072   3.194   7.945  0.3996 -1.6459 -0.0824
20474SOL     OW62862   1.332   4.005  11.759  0.0088 -0.0914  0.2585
20474SOL    HW162863   1.292   3.922  11.783  1.0779 -0.8078 -0.3553
20474SOL    HW262864   1.277   4.040  11.689  0.3452 -0.9936 -0.4785
20475SOL     OW62865   4.858   0.317  12.086 -0.1549 -0.6669  0.5150
20475SOL    HW162866   4.765   0.317  12.067  0.1331  0.3478 -1.0297
20475SOL    HW262867   4.883   0.409  12.086  1.3895 -0.9960 -2.1491
20476SOL     OW62868   3.831   4.869  10.188 -0.3592  0.4938 -0.2452
20476SOL    HW162869   3.807   4.784  10.225  4.2749 -1.3266 -0.7551
20476SOL    HW262870   3.801   4.932  10.253 -1.0120 -1.8111  1.8696
20477SOL     OW62871   4.396   5.599   6.039  0.2619  0.0096 -0.0751
20477SOL    HW162872   4.334   5.658   5.997 -0.0862 -1.1174 -1.2096
20477SOL    HW262873   4.416   5.534   5.971  1.8030 -0.2973  0.6396
20478SOL     OW62874   7.176   6.787   3.982  0.0534 -0.1627  0.3581
20478SOL    HW162875   7.242   6.735   4.029 -0.3692  0.2247  1.4173
20478SOL    HW262876   7.163   6.740   3.900  0.0974 -1.4220  1.0437
20479SOL     OW62877   6.171   0.546   7.827  0.4453 -0.2031 -0.0286
20479SOL    HW162878   6.194   0.638   7.839  3.1393 -0.7456 -0.4331
20479SOL    HW262879   6.208   0.502   7.904  1.1585 -1.2039 -0.9193
20480SOL     OW62880   1.204   6.736   8.336 -0.1644 -0.2516  0.0198
20480SOL    HW162881   1.211   6.669   8.405 -0.7113 -0.3892 -0.0527
20480SOL    HW262882   1.113   6.730   8.307 -0.0523  0.1160 -0.4047
20481SOL     OW62883   7.083   0.711   5.052  0.2996 -0.0441  0.0613
20481SOL    HW162884   7.026   0.753   5.117 -1.0516 -1.5198 -0.1125
20481SOL    HW262885   7.164   0.761   5.056  0.6247 -0.5957  3.5675
20482SOL     OW62886   1.737   1.572   3.566 -0.5923 -0.1048 -0.4832
20482SOL    HW162887   1.738   1.652   3.619  0.0287 -0.3699 -0.0893
20482SOL    HW262888   1.694   1.507   3.621  1.7483 -0.9055  0.4970
20483SOL     OW62889   4.295   1.820   4.460 -0.2359 -0.1589  0.4477
20483SOL    HW162890   4.310   1.895   4.517  2.9333 -0.4992  0.2773
20483SOL    HW262891   4.383   1.785   4.444 -1.4612 -3.0684 -0.6067
20484SOL     OW62892   3.774   0.661  10.796  0.0650  0.0721  0.0090
20484SOL    HW162893   3.837   0.665  10.725 -0.4028 -2.1757 -0.6041
20484SOL    HW262894   3.826   0.634  10.872  0.2231  0.4812  0.0483
20485SOL     OW62895   2.074   2.152   8.244  0.3806  0.0295 -0.3514
20485SOL    HW162896   2.128   2.078   8.216  0.5739  0.4743 -1.2109
20485SOL    HW262897   2.137   2.221   8.264  0.2148 -0.1199  0.7250
20486SOL     OW62898   4.228   7.330   7.413 -0.0384 -0.4472  0.1187
20486SOL    HW162899   4.309   7.337   7.362 -0.5763 -2.1320 -1.0450
20486SOL    HW262900   4.189   7.247   7.385 -1.2377 -0.5898  2.0320
20487SOL     OW62901   2.250   1.736   7.404  0.9078 -0.6340 -0.0373
20487SOL    HW162902   2.339   1.729   7.439  0.5973 -0.2727  0.8451
20487SOL    HW262903   2.215   1.647   7.411  2.1349 -1.4901 -3.0723
20488SOL     OW62904   1.466   0.973   5.685 -0.1268 -0.0841  0.0691
20488SOL    HW162905   1.525   0.938   5.617  0.5433 -0.2781  0.7380
20488SOL    HW262906   1.496   1.063   5.698 -0.1242 -0.1128  0.2569
20489SOL     OW62907   7.856   0.161  11.927 -0.6372 -0.0302  0.3139
20489SOL    HW162908   7.826   0.109  11.853 -2.7964  0.2376  0.9354
20489SOL    HW262909   7.906   0.101  11.981 -0.7126 -0.7308 -0.3871
20490SOL     OW62910   2.912   1.415  11.053 -0.1354  0.6328  0.1468
20490SOL    HW162911   2.895   1.436  10.961 -0.2485  1.8505  0.4185
20490SOL    HW262912   2.827   1.388  11.087 -0.1592  0.4870 -0.0253
20491SOL     OW62913   6.709   1.522   7.570  0.2048 -0.3008 -0.1986
20491SOL    HW162914   6.641   1.455   7.559 -1.5159  1.5943 -1.9839
20491SOL    HW262915   6.663   1.595   7.612  1.2394  0.8753 -1.0783
20492SOL     OW62916   1.434   1.777  12.102  0.2575  0.1197 -0.1393
20492SOL    HW162917   1.360   1.812  12.153 -0.6205  0.0846 -1.3436
20492SOL    HW262918   1.510   1.789  12.159 -0.5351  0.9960  0.7799
20493SOL     OW62919   2.697   4.838   6.254 -0.5280 -0.2091  0.2088
20493SOL    HW162920   2.690   4.794   6.170  0.4306 -0.6959  0.3743
20493SOL    HW262921   2.729   4.771   6.314  2.0113  0.9202  0.2449
20494SOL     OW62922   2.517   6.314   6.366 -0.3976  0.0645 -0.1236
20494SOL    HW162923   2.521   6.311   6.462 -0.8278  3.1816  0.0848
20494SOL    HW262924   2.591   6.260   6.338 -0.1224 -0.7370  1.9491
20495SOL     OW62925   7.576   7.148  11.979 -0.1950  0.0095  0.8815
20495SOL    HW162926   7.552   7.068  11.933  0.4926 -0.0391  0.5957
20495SOL    HW262927   7.574   7.216  11.912  2.8247 -0.3967  0.2172
20496SOL     OW62928   1.075   5.513  10.035  0.1586 -0.0275 -0.2449
20496SOL    HW162929   1.082   5.581  10.102  0.9356  0.5616 -0.9015
20496SOL    HW262930   1.166   5.489  10.016 -0.1040 -1.6701  0.3741
20497SOL     OW62931   6.976   2.098  11.321  0.4913 -0.1630 -0.5140
20497SOL    HW162932   6.951   2.143  11.240  1.1553  0.5293 -0.3407
20497SOL    HW262933   7.066   2.068  11.305  0.2361 -0.9981 -0.4371
20498SOL     OW62934   6.467   6.707   7.290 -0.0808 -0.0532 -0.4250
20498SOL    HW162935   6.517   6.698   7.209  0.3071  1.0134 -0.3162
20498SOL    HW262936   6.487   6.795   7.322 -0.6403 -0.2597  0.5575
20499SOL     OW62937   3.077   5.800   9.513 -0.3875  0.0235 -0.1421
20499SOL    HW162938   3.023   5.807   9.592  1.2162  1.6159  0.9197
20499SOL    HW262939   3.166   5.786   9.546  0.0992 -0.9278 -1.7496
20500SOL     OW62940   0.149   2.516   8.131 -0.1177 -0.1943  0.2788
20500SOL    HW162941   0.084   2.481   8.192  1.1713 -0.7496  1.3860
20500SOL    HW262942   0.196   2.439   8.099  0.4381  0.2467  0.0135
20501SOL     OW62943   4.035   1.105   8.365  0.1467 -0.2234  0.6309
20501SOL    HW162944   4.107   1.056   8.406  0.5163  0.1122  0.3978
20501SOL    HW262945   3.956   1.068   8.402  0.3352 -2.0539 -0.6678
20502SOL     OW62946   2.438   6.502  10.627 -0.5888 -0.1437  0.3246
20502SOL    HW162947   2.499   6.461  10.689 -0.3127  1.8423  1.4525
20502SOL    HW262948   2.495   6.538  10.559 -0.7972 -1.2055 -0.4320
20503SOL     OW62949   6.010   4.569   6.974 -0.0353  0.4647 -0.0843
20503SOL    HW162950   6.081   4.572   6.910 -0.1384 -0.5316 -0.2647
20503SOL    HW262951   6.021   4.649   7.025 -0.2173  1.5158 -1.6115
20504SOL     OW62952   6.758   1.016   9.623  0.2597  0.1006  0.0047
20504SOL    HW162953   6.738   1.041   9.533 -0.5646  1.4063  0.5206
20504SOL    HW262954   6.697   1.067   9.676  0.7958 -0.5743  1.3123
20505SOL     OW62955   1.371   5.766   7.866 -0.1768 -0.2536  0.1916
20505SOL    HW162956   1.408   5.844   7.907 -1.8143 -0.0914  1.4450
20505SOL    HW262957   1.443   5.702   7.868  0.2033  0.1609  2.1735
20506SOL     OW62958   0.591   4.789   0.793 -0.3622  0.4467  0.2297
20506SOL    HW162959   0.505   4.809   0.756  0.1080  1.2150 -0.4629
20506SOL    HW262960   0.578   4.705   0.839 -1.9457  1.4796  1.7940
20507SOL     OW62961   1.578   4.245   3.633  0.3911  0.4111  0.6987
20507SOL    HW162962   1.519   4.308   3.592  0.8129  0.2339 -0.2136
20507SOL    HW262963   1.656   4.245   3.577  0.0346 -1.6041  0.1170
20508SOL     OW62964   0.785   2.454   8.890  0.2521 -0.0193  0.3235
20508SOL    HW162965   0.818   2.432   8.803 -0.1509 -1.2817  0.4660
20508SOL    HW262966   0.706   2.504   8.874 -0.6569 -1.5074 -0.0888
20509SOL     OW62967   0.494   4.686   7.584  0.0478 -0.0277  0.2940
20509SOL    HW162968   0.518   4.622   7.652 -0.9816  0.5172  1.2072
20509SOL    HW262969   0.477   4.633   7.506 -0.4729 -0.8396  0.9456
20510SOL     OW62970   5.980   2.734   6.267 -0.0893  0.2200 -0.3068
20510SOL    HW162971   5.897   2.733   6.219  0.8338 -2.0088 -1.9818
20510SOL    HW262972   6.047   2.742   6.200  1.1591 -0.1895  0.8417
20511SOL     OW62973   6.290   7.132   5.740 -0.2434 -0.2776  0.3638
20511SOL    HW162974   6.304   7.123   5.834  0.5453 -0.5945  0.2249
20511SOL    HW262975   6.246   7.216   5.730 -0.5386 -0.3472  1.0319
20512SOL     OW62976   3.283   7.761   7.320  0.3481 -0.1794  0.2783
20512SOL    HW162977   3.200   7.798   7.349  0.5929  0.9206 -0.3633
20512SOL    HW262978   3.273   7.666   7.333 -1.6414 -0.2576 -1.3397
20513SOL     OW62979   0.128   3.705   4.710 -0.3580 -0.3638 -0.6275
20513SOL    HW162980   0.191   3.734   4.775 -1.9618  1.0268  0.4027
20513SOL    HW262981   0.046   3.694   4.759 -1.6174  0.7363 -2.3620
20514SOL     OW62982   5.039   6.670   8.333 -0.4863 -0.1171 -0.1182
20514SOL    HW162983   5.076   6.757   8.315 -0.0489 -0.1716  0.4807
20514SOL    HW262984   5.112   6.621   8.371 -1.1422 -0.2543  0.9891
20515SOL     OW62985   4.048   7.517   7.122 -0.4795 -0.2195 -0.0168
20515SOL    HW162986   4.019   7.605   7.099  1.1469  0.1242 -0.9273
20515SOL    HW262987   4.143   7.520   7.111  0.1621 -0.9262  3.9013
20516SOL     OW62988   3.922   5.010   9.005  0.0630 -0.2271  0.5111
20516SOL    HW162989   3.834   5.047   9.003  0.2020  0.2179  1.5804
20516SOL    HW262990   3.962   5.037   8.922 -0.9471 -0.8214 -0.1819
20517SOL     OW62991   7.083   6.093  12.333 -0.0229 -0.3195  0.1101
20517SOL    HW162992   7.088   6.002  12.360  4.1628 -0.6035 -0.9231
20517SOL    HW262993   7.171   6.128  12.348 -1.5305  3.7378  0.8345
20518SOL     OW62994   4.658   5.862   9.595 -0.6421  0.6555  0.5379
20518SOL    HW162995   4.668   5.886   9.503  2.0212 -1.1281  0.2665
20518SOL    HW262996   4.599   5.787   9.595  0.7685 -0.4868  0.0346
20519SOL     OW62997   7.271   5.271   3.385  0.0046 -0.4649 -0.2306
20519SOL    HW162998   7.228   5.187   3.398  1.1531 -0.8380  1.5999
20519SOL    HW262999   7.211   5.335   3.426  0.4563 -0.7866  0.9662
20520SOL     OW63000   2.209   5.193  10.605  0.2375  0.0396 -0.6075
20520SOL    HW163001   2.249   5.276  10.583  0.5177 -0.0002 -0.2481
20520SOL    HW263002   2.138   5.183  10.542  0.8316  0.0746 -1.2910
20521SOL     OW63003   5.842   5.987   7.932 -0.8288 -0.1486  0.2293
20521SOL    HW163004   5.753   5.989   7.896 -0.3503 -2.4364 -1.3407
20521SOL    HW263005   5.890   5.930   7.872  2.1630  2.2247  0.1534
20522SOL     OW63006   1.357   0.891   0.907  0.2556 -0.5622 -0.3994
20522SOL    HW163007   1.391   0.979   0.928  0.8118 -0.7073 -0.6622
20522SOL    HW263008   1.265   0.905   0.887  0.3108 -0.0521 -0.3125
20523SOL     OW63009   0.884   6.760   9.918  0.1719  0.2939  0.3529
20523SOL    HW163010   0.859   6.814   9.993  2.7883  0.5315  1.1252
20523SOL    HW263011   0.939   6.691   9.955  0.4360 -0.3636 -1.1945
20524SOL     OW63012   3.717   3.307   5.065  0.2279  0.0304  0.6064
20524SOL    HW163013   3.695   3.214   5.076 -0.6952  0.2096  0.3510
20524SOL    HW263014   3.634   3.353   5.079  0.8139  0.8719  1.4286
20525SOL     OW63015   1.334   6.932   1.648 -0.7765 -0.8556  0.5941
20525SOL    HW163016   1.395   6.891   1.586 -0.1971  0.1215  0.4983
20525SOL    HW263017   1.315   6.863   1.712 -0.1002 -1.3841  0.2434
20526SOL     OW63018   3.747   7.349   5.072  0.4411  0.3283  0.1848
20526SOL    HW163019   3.755   7.316   4.983 -0.8719  2.0386 -0.6295
20526SOL    HW263020   3.697   7.281   5.118  2.6360 -1.3961  0.1700
20527SOL     OW63021   5.616   1.296   9.671  0.1670 -0.2420  0.0079
20527SOL    HW163022   5.580   1.383   9.688 -0.7519 -0.7270  0.6293
20527SOL    HW263023   5.664   1.273   9.750 -1.2134 -1.0693  0.6563
20528SOL     OW63024   5.704   4.629   4.970 -0.5787  0.0146  0.3077
20528SOL    HW163025   5.693   4.633   5.065 -2.0996 -0.9605  0.2039
20528SOL    HW263026   5.629   4.578   4.939  0.7021 -1.0363 -1.2651
20529SOL     OW63027   6.254   2.321   9.011  0.0013  0.0085  0.4632
20529SOL    HW163028   6.203   2.387   8.964  0.3140 -0.6331 -0.8207
20529SOL    HW263029   6.238   2.240   8.963 -1.1236 -1.0896  2.5481
20530SOL     OW63030   7.098   2.635   8.464 -0.3075  0.0965 -0.4982
20530SOL    HW163031   7.044   2.674   8.532  0.0898  1.0225 -0.6936
20530SOL    HW263032   7.135   2.710   8.417  1.8206 -0.4711  0.1707
20531SOL     OW63033   7.042   5.730   1.926  0.1703  0.4845 -0.6286
20531SOL    HW163034   7.108   5.786   1.887  1.5426 -0.8806 -0.3719
20531SOL    HW263035   7.075   5.641   1.914 -1.3776 -0.2190 -0.0305
20532SOL     OW63036   7.478   3.171   1.663 -0.7483 -0.5152 -0.5139
20532SOL    HW163037   7.563   3.128   1.655 -1.0153 -0.9417 -1.0688
20532SOL    HW263038   7.422   3.106   1.706 -1.3354 -0.9938 -1.9482
20533SOL     OW63039   0.602   4.438  12.282 -0.8700  0.2068  0.1310
20533SOL    HW163040   0.586   4.345  12.300  1.2501 -1.1170 -3.7012
20533SOL    HW263041   0.520   4.469  12.243 -0.2894 -1.4381 -2.6773
20534SOL     OW63042   7.134   4.884   4.893  0.3615 -0.2199 -0.3604
20534SOL    HW163043   7.161   4.851   4.807 -0.7143 -0.0957 -0.7612
20534SOL    HW263044   7.202   4.948   4.916  0.6664 -0.2594 -1.1158
20535SOL     OW63045   6.141   1.077   5.214  0.4018  0.1978  0.3203
20535SOL    HW163046   6.091   1.136   5.270 -1.0763 -0.8342  0.1555
20535SOL    HW263047   6.224   1.065   5.260  0.2409  1.3864  0.9737
20536SOL     OW63048   7.133   1.335   4.617  0.3396 -0.5103 -0.2535
20536SOL    HW163049   7.110   1.422   4.647 -0.7125 -0.3727 -1.3407
20536SOL    HW263050   7.064   1.278   4.653 -0.9311 -0.3454 -2.2234
20537SOL     OW63051   1.598   1.026   2.630  0.0570  0.3782  0.3095
20537SOL    HW163052   1.520   0.981   2.598  0.5783 -0.6339  0.4231
20537SOL    HW263053   1.588   1.116   2.599 -0.5369 -0.0408 -0.7840
20538SOL     OW63054   2.273   7.629   9.291  0.3973  0.2979 -0.1311
20538SOL    HW163055   2.286   7.719   9.262  2.0772  0.6694  1.5487
20538SOL    HW263056   2.258   7.636   9.386  0.1089 -1.1419 -0.0399
20539SOL     OW63057   0.942   3.950   0.762 -0.3963  0.3183 -0.2069
20539SOL    HW163058   0.878   3.964   0.832  2.9534  1.9607  2.8297
20539SOL    HW263059   0.970   3.859   0.773 -1.3529 -0.0876 -0.8980
20540SOL     OW63060   0.494   3.745   6.237  0.4275 -0.3875  0.1045
20540SOL    HW163061   0.523   3.711   6.152 -1.5102  0.8884 -1.1425
20540SOL    HW263062   0.575   3.764   6.285  1.5667 -0.9623 -1.5175
20541SOL     OW63063   6.480   4.066   9.139  0.3680  0.1974  0.2001
20541SOL    HW163064   6.490   3.971   9.129 -1.1170  0.1451 -1.1445
20541SOL    HW263065   6.569   4.100   9.138  1.0006 -1.2437  1.7562
20542SOL     OW63066   3.612   2.319   1.008 -0.3561  0.0665  0.2595
20542SOL    HW163067   3.698   2.288   1.036  0.0705  1.2110  0.2971
20542SOL    HW263068   3.629   2.364   0.924 -0.9466  0.1204  0.1638
20543SOL     OW63069   0.074   1.096   5.692  0.3983  0.0696  0.5681
20543SOL    HW163070  -0.001   1.078   5.636  0.2653  1.1233  0.3946
20543SOL    HW263071   0.151   1.083   5.636  0.4343 -2.1995  1.0606
20544SOL     OW63072   5.707   1.136   6.615 -0.2290  0.5847  0.3835
20544SOL    HW163073   5.653   1.079   6.669  0.5570 -1.3529 -0.7842
20544SOL    HW263074   5.746   1.198   6.677  1.1752 -1.9485  2.2252
20545SOL     OW63075   0.818   5.014   2.665  0.7561  0.6093 -0.0399
20545SOL    HW163076   0.850   5.004   2.754 -0.8019  2.4101  0.7910
20545SOL    HW263077   0.896   5.004   2.610  1.8658  0.1727  1.5415
20546SOL     OW63078   5.158   2.286   8.311  0.3276  0.3317 -0.2686
20546SOL    HW163079   5.176   2.299   8.218 -0.0988 -0.0072 -0.4070
20546SOL    HW263080   5.196   2.200   8.331  0.1584  0.2696 -0.2073
20547SOL     OW63081   6.169   3.379  12.039  0.0403  0.2620 -0.1347
20547SOL    HW163082   6.236   3.441  12.067  2.1070 -0.5172 -2.9658
20547SOL    HW263083   6.172   3.309  12.105  1.6085  0.5278  0.1089
20548SOL     OW63084   5.099   5.024   7.273  0.1975 -0.3607 -0.3147
20548SOL    HW163085   5.006   5.006   7.265  0.1985 -0.8069  0.5137
20548SOL    HW263086   5.106   5.119   7.269 -0.2924 -0.3244 -0.3751
20549SOL     OW63087   4.574   5.904  10.634  0.2440  0.2976 -0.7393
20549SOL    HW163088   4.544   5.852  10.709  2.7061 -0.8627 -0.4531
20549SOL    HW263089   4.517   5.877  10.562 -1.4584  0.6172  0.4343
20550SOL     OW63090   0.029   6.916   2.024 -0.3727 -0.0557  0.1402
20550SOL    HW163091   0.085   6.842   2.048 -0.8824 -0.2037  0.9413
20550SOL    HW263092  -0.053   6.876   1.996  0.4465  0.0811 -2.7180
20551SOL     OW63093   2.294   3.189   7.691 -0.2177 -0.6532  0.6272
20551SOL    HW163094   2.296   3.192   7.595 -1.7215 -0.7387  0.5599
20551SOL    HW263095   2.383   3.212   7.718  0.4767 -1.5107 -0.7949
20552SOL     OW63096   1.438   0.465   6.848  0.3068  0.6104 -0.5099
20552SOL    HW163097   1.397   0.509   6.922  0.6835 -1.3010  0.8875
20552SOL    HW263098   1.372   0.467   6.779 -0.9636  0.2984  0.6687
20553SOL     OW63099   1.615   4.634   6.128  0.3444 -0.0584 -0.4611
20553SOL    HW163100   1.672   4.602   6.199  0.7430 -0.2604 -0.8666
20553SOL    HW263101   1.562   4.558   6.104  0.9898 -0.3087 -1.1309
20554SOL     OW63102   6.407   4.418   8.509  0.0090  0.5615  0.0563
20554SOL    HW163103   6.470   4.440   8.440 -0.8821  1.3414 -0.5303
20554SOL    HW263104   6.451   4.444   8.590  1.3877 -1.0808 -0.1064
20555SOL     OW63105   2.785   2.464  10.354  0.1210 -0.5221 -0.1417
20555SOL    HW163106   2.783   2.536  10.290  0.6954 -0.1718  0.2197
20555SOL    HW263107   2.756   2.388  10.305  0.5464 -0.2544 -0.8340
20556SOL     OW63108   4.984   6.049   3.153 -0.1859  0.1792  0.0851
20556SOL    HW163109   5.059   5.990   3.161  0.3241  0.6419 -1.0869
20556SOL    HW263110   4.911   6.001   3.191  0.2451 -1.1613 -0.7410
20557SOL     OW63111   5.153   6.441   5.738 -0.9551 -0.0263  0.3053
20557SOL    HW163112   5.204   6.386   5.797 -0.8830  0.6502  0.8832
20557SOL    HW263113   5.067   6.399   5.734 -1.2413  0.3826  1.5902
20558SOL     OW63114   6.420   3.290  11.137  0.1737  0.4112  0.2821
20558SOL    HW163115   6.378   3.251  11.060 -0.0418 -0.9882  1.0727
20558SOL    HW263116   6.483   3.352  11.101 -1.4869  1.4741 -0.9687
20559SOL     OW63117   6.276   3.250   5.447 -0.3504  0.1087  0.6635
20559SOL    HW163118   6.256   3.341   5.468  0.4907  0.1384  1.4118
20559SOL    HW263119   6.191   3.208   5.436 -0.7423  1.1187 -0.3101
20560SOL     OW63120   2.241   0.175   2.706  0.0176  0.2560 -0.5175
20560SOL    HW163121   2.285   0.259   2.695 -1.2935  1.2404  1.1661
20560SOL    HW263122   2.148   0.199   2.714 -0.2270 -1.1511  1.6107
20561SOL     OW63123   7.510   4.496   6.388  0.7403 -0.3182 -0.0171
20561SOL    HW163124   7.463   4.431   6.440 -1.3675  1.0741 -0.0309
20561SOL    HW263125   7.503   4.464   6.298 -0.1592 -0.1877 -0.0071
20562SOL     OW63126   1.672   5.278  10.013 -0.1097 -0.3689 -0.3392
20562SOL    HW163127   1.711   5.230   9.940  1.0688 -1.8991  1.2060
20562SOL    HW263128   1.624   5.211  10.062 -0.2402  0.4658  0.6917
20563SOL     OW63129   0.031   3.003   0.886  0.0481 -0.0449  0.5705
20563SOL    HW163130   0.078   3.035   0.809 -0.2523 -0.3323  0.2658
20563SOL    HW263131  -0.030   3.073   0.908 -0.6601 -0.4215 -0.1402
20564SOL     OW63132   1.746   3.570   0.368  0.4719 -0.3897  0.3346
20564SOL    HW163133   1.802   3.595   0.441  2.7703 -0.1893 -1.3694
20564SOL    HW263134   1.761   3.476   0.358  0.8861 -0.2473 -0.4298
20565SOL     OW63135   4.531   5.165   6.973  0.0404 -0.4900 -0.5324
20565SOL    HW163136   4.446   5.196   6.941  0.4719  0.2298 -1.0005
20565SOL    HW263137   4.587   5.167   6.896  0.3629 -1.4287 -0.3333
20566SOL     OW63138   4.779   6.683   3.357 -0.5938 -0.3338 -0.1754
20566SOL    HW163139   4.709   6.644   3.304 -1.5372  2.3081 -1.0057
20566SOL    HW263140   4.860   6.658   3.311 -1.2751  0.1459 -1.7118
20567SOL     OW63141   2.768   0.674   4.021 -0.0096 -0.0342  0.1231
20567SOL    HW163142   2.814   0.690   4.103  0.7560 -0.5096 -0.1995
20567SOL    HW263143   2.808   0.594   3.986 -0.3284  0.1544 -0.7064
20568SOL     OW63144   4.143   7.640   2.144 -0.0543 -0.6640 -0.0671
20568SOL    HW163145   4.081   7.700   2.101  0.4207  0.0961  0.2996
20568SOL    HW263146   4.112   7.553   2.119 -0.0537 -0.2576 -1.5914
20569SOL     OW63147   3.045   4.451   1.841  0.0713  0.5479 -0.7297
20569SOL    HW163148   3.084   4.377   1.888  0.6977 -0.1743 -2.3347
20569SOL    HW263149   3.035   4.519   1.908 -1.8905 -1.4388  1.1529
20570SOL     OW63150   4.878   0.251  11.680 -0.1668  0.4005  0.3234
20570SOL    HW163151   4.886   0.158  11.659  0.8169  0.5395  0.0517
20570SOL    HW263152   4.791   0.259  11.718  0.0200 -0.7644  1.0427
20571SOL     OW63153   0.690   0.132   8.526  0.0377 -0.8359 -0.1220
20571SOL    HW163154   0.745   0.161   8.599  2.1176 -1.5103 -1.3397
20571SOL    HW263155   0.630   0.068   8.564  0.7450 -0.8087  1.0627
20572SOL     OW63156   0.567   6.254   6.324  0.1629 -0.5696  0.2536
20572SOL    HW163157   0.554   6.174   6.375  0.0935  0.3078  1.6459
20572SOL    HW263158   0.495   6.254   6.261  0.7652 -2.1259 -0.4977
20573SOL     OW63159   0.204   0.800   2.163 -0.6284  0.6853  0.0307
20573SOL    HW163160   0.278   0.780   2.220 -1.1815 -1.2085  0.1366
20573SOL    HW263161   0.127   0.791   2.219 -1.1489 -0.8125 -0.8586
20574SOL     OW63162   7.251   5.899   6.818  0.1567 -0.2965 -0.3348
20574SOL    HW163163   7.291   5.986   6.814 -0.1510 -0.0963  0.7578
20574SOL    HW263164   7.195   5.902   6.895  0.5365 -1.6374  0.0137
20575SOL     OW63165   7.968   0.067   6.682  0.3964  0.2413  0.0084
20575SOL    HW163166   7.894   0.010   6.660 -0.1303  1.2438 -0.8315
20575SOL    HW263167   7.975   0.059   6.777  0.3619 -1.2535 -0.0804
20576SOL     OW63168   3.042   0.264  10.172 -0.0504  0.1653  0.6013
20576SOL    HW163169   2.985   0.240  10.098  0.6868  2.1331 -0.6850
20576SOL    HW263170   3.033   0.359  10.180  2.1609  0.3951  1.0756
20577SOL     OW63171   6.745   5.024  12.018 -0.0152  0.4362 -0.0313
20577SOL    HW163172   6.678   5.093  12.011  0.0117  0.4705  0.0452
20577SOL    HW263173   6.827   5.072  12.033 -0.0649  0.3667  0.4770
20578SOL     OW63174   4.848   7.343   5.175  0.1807  0.1342  0.2616
20578SOL    HW163175   4.908   7.301   5.237 -0.0412 -1.5029 -0.5734
20578SOL    HW263176   4.878   7.314   5.089 -0.5883  0.9213 -0.2860
20579SOL     OW63177   0.729   4.061   2.518 -0.8188  0.8606 -0.9135
20579SOL    HW163178   0.650   4.060   2.464 -0.7156 -3.5388 -1.3591
20579SOL    HW263179   0.801   4.055   2.455 -0.4820 -0.4611 -0.4262
20580SOL     OW63180   3.225   5.627   0.987  0.0552  0.0604 -0.2510
20580SOL    HW163181   3.317   5.611   1.011 -0.7213 -2.2207  1.5847
20580SOL    HW263182   3.177   5.615   1.069 -1.9380  0.7820 -1.2702
20581SOL     OW63183   0.232   5.571   2.682 -0.2418  0.1874 -0.2565
20581SOL    HW163184   0.162   5.507   2.691 -0.2079  0.1656 -0.1471
20581SOL    HW263185   0.303   5.523   2.640 -0.1545  0.1065 -0.0184
20582SOL     OW63186   2.965   4.364   6.582 -0.4854 -0.6516  0.7603
20582SOL    HW163187   2.997   4.412   6.505 -0.2542 -0.8222  0.7499
20582SOL    HW263188   3.045   4.339   6.629 -0.5611 -1.7903  0.3107
20583SOL     OW63189   4.981   4.974   6.676  0.2395 -0.1815  0.4366
20583SOL    HW163190   4.954   4.982   6.767  1.3455 -0.0392  0.7689
20583SOL    HW263191   5.071   4.941   6.680  0.1952 -0.4846 -0.6117
20584SOL     OW63192   1.819   2.276  11.005 -0.2460  0.2339  0.0719
20584SOL    HW163193   1.741   2.305  11.052 -0.3819 -0.7668  0.4968
20584SOL    HW263194   1.793   2.276  10.913 -0.3037  1.2221  0.0781
20585SOL     OW63195   6.590   7.756   3.302 -0.0751 -0.0311 -0.8585
20585SOL    HW163196   6.634   7.730   3.383 -1.6855 -0.0593  0.0391
20585SOL    HW263197   6.626   7.698   3.235  0.2535 -0.9683  0.1052
20586SOL     OW63198   4.878   1.268   4.389  0.3232 -0.5641 -0.1574
20586SOL    HW163199   4.935   1.344   4.379  0.7920 -0.9169 -0.2170
20586SOL    HW263200   4.836   1.258   4.304 -0.0563 -0.1236 -0.0235
20587SOL     OW63201   3.624   2.180   1.637  0.3564  0.2719  0.0168
20587SOL    HW163202   3.675   2.226   1.571  0.2730 -0.4574 -0.5670
20587SOL    HW263203   3.549   2.237   1.654 -0.1516  0.0151 -1.2547
20588SOL     OW63204   6.734   5.795   4.477  0.1709  0.0882 -0.4345
20588SOL    HW163205   6.663   5.779   4.415 -0.2456 -0.1877  0.1061
20588SOL    HW263206   6.697   5.858   4.539 -0.3246 -1.5443  1.0189
20589SOL     OW63207   1.568   1.325  11.225 -0.0480  0.3900 -0.2877
20589SOL    HW163208   1.652   1.308  11.182  0.9026 -0.4905  1.7575
20589SOL    HW263209   1.591   1.380  11.300 -1.2212 -0.2417  0.5627
20590SOL     OW63210   1.123   6.631   2.230 -0.2963  0.8581  0.2935
20590SOL    HW163211   1.143   6.555   2.285  0.4575  0.8836  0.0678
20590SOL    HW263212   1.091   6.594   2.148  1.0848  0.7462 -0.2077
20591SOL     OW63213   4.186   6.120   4.819 -0.0295  0.7041  0.4481
20591SOL    HW163214   4.145   6.171   4.749 -1.7430 -1.4692 -0.2551
20591SOL    HW263215   4.280   6.123   4.800 -0.1589  2.7522 -0.0771
20592SOL     OW63216   5.269   4.280   1.709  0.1340 -0.3165 -0.1149
20592SOL    HW163217   5.304   4.207   1.760 -0.1408  0.2362  0.8769
20592SOL    HW263218   5.309   4.269   1.622  1.2340 -0.8042  0.4313
20593SOL     OW63219   4.246   4.284   3.392  0.3326 -0.2504  0.6080
20593SOL    HW163220   4.288   4.370   3.393  0.5663 -0.3655  0.9888
20593SOL    HW263221   4.258   4.251   3.481  0.6427 -0.8692  0.3456
20594SOL     OW63222   4.911   6.221  12.290 -0.5693 -0.5672 -0.1597
20594SOL    HW163223   4.969   6.272  12.346 -1.7552  0.0541  0.5384
20594SOL    HW263224   4.829   6.215  12.339 -0.9492 -1.8578 -0.8930
20595SOL     OW63225   2.012   5.240   2.457 -0.0380 -0.2222 -0.3542
20595SOL    HW163226   1.988   5.283   2.375  0.0159 -1.6392 -1.1411
20595SOL    HW263227   1.971   5.154   2.453 -0.8608  0.0264  1.5740
20596SOL     OW63228   6.038   4.562   2.089  0.2922  0.4802 -0.0212
20596SOL    HW163229   6.065   4.644   2.047 -1.7693  1.1595 -0.1647
20596SOL    HW263230   6.040   4.497   2.019 -1.8470  1.3174 -0.9656
20597SOL     OW63231   4.631   3.211   7.782 -0.1935 -0.6646  0.1021
20597SOL    HW163232   4.670   3.294   7.755 -1.1641 -0.0723  0.4589
20597SOL    HW263233   4.706   3.154   7.799  0.4753 -0.0766 -0.7847
20598SOL     OW63234   0.721   4.848   2.955  0.1457  0.2598  0.0551
20598SOL    HW163235   0.665   4.784   2.999  0.6823 -0.8728 -0.8784
20598SOL    HW263236   0.724   4.922   3.015  0.7644 -1.1874  1.8837
20599SOL     OW63237   5.139   1.159  11.027 -0.5856 -0.0588 -0.6951
20599SOL    HW163238   5.229   1.165  11.059 -0.5013 -0.3139 -0.8776
20599SOL    HW263239   5.088   1.135  11.104 -0.4465 -0.2536 -0.6618
20600SOL     OW63240   0.775   3.115   6.713  0.5750 -0.0232  0.1924
20600SOL    HW163241   0.722   3.194   6.723  1.7451  0.8327 -0.0947
20600SOL    HW263242   0.732   3.064   6.645 -0.6889 -0.0694  0.9982
20601SOL     OW63243   7.323   1.402   0.092 -0.7522  0.1908  0.2009
20601SOL    HW163244   7.360   1.463   0.028  0.6844  0.4663  1.2241
20601SOL    HW263245   7.398   1.376   0.146 -1.1866 -2.8553 -0.4426
20602SOL     OW63246   2.707   1.201   1.924  0.7365  0.1404 -0.1339
20602SOL    HW163247   2.678   1.247   2.002  1.3208  0.2011  0.0546
20602SOL    HW263248   2.630   1.152   1.894  0.2804  0.7734 -0.0035
20603SOL     OW63249   1.087   4.134   8.019  0.7073 -0.1576  0.0180
20603SOL    HW163250   1.169   4.114   7.974  0.6149  1.4683 -0.9498
20603SOL    HW263251   1.114   4.177   8.100  0.8194  0.0416 -0.1242
20604SOL     OW63252   5.933   2.632   2.208  0.2076  0.5803  0.3645
20604SOL    HW163253   5.862   2.569   2.226 -0.8193  1.0024 -1.8821
20604SOL    HW263254   6.011   2.590   2.243 -0.4998 -1.8517 -0.7524
20605SOL     OW63255   4.111   6.449   6.968  0.1562  0.2949 -0.0426
20605SOL    HW163256   4.109   6.379   7.033  0.0165 -0.3743 -0.7493
20605SOL    HW263257   4.020   6.461   6.942  0.2111  0.5554 -0.1215
20606SOL     OW63258   1.031   3.041   3.183 -0.2211  0.0053 -0.3645
20606SOL    HW163259   1.035   3.077   3.094  0.2947  2.0872  0.4350
20606SOL    HW263260   1.093   2.968   3.182 -1.6506 -1.2850 -2.1871
20607SOL     OW63261   4.390   5.612   4.249  0.3603 -0.6258  0.6554
20607SOL    HW163262   4.412   5.700   4.280  0.8781 -0.8204  0.8557
20607SOL    HW263263   4.401   5.617   4.154  0.3953 -0.4719  0.6668
20608SOL     OW63264   6.192   7.614   8.676 -0.3069 -0.3873 -0.3148
20608SOL    HW163265   6.210   7.685   8.737  0.3286 -0.6282 -0.2044
20608SOL    HW263266   6.099   7.622   8.655 -0.5514 -0.3460  0.7440
20609SOL     OW63267   7.474   1.061   8.332  0.4374  0.2071 -0.0527
20609SOL    HW163268   7.471   1.071   8.427 -0.8078  1.6069 -0.1878
20609SOL    HW263269   7.567   1.060   8.310  0.7351 -0.3051  1.1937
20610SOL     OW63270   0.694   2.757  10.791  0.0117  0.0431 -0.3604
20610SOL    HW163271   0.691   2.847  10.825 -1.7229 -0.9517  2.5256
20610SOL    HW263272   0.627   2.754  10.723 -1.1459  0.5715  0.7170
20611SOL     OW63273   3.194   3.757   1.690  0.0571  0.6605 -0.0916
20611SOL    HW163274   3.191   3.851   1.671 -1.4101  0.2894 -2.0322
20611SOL    HW263275   3.211   3.716   1.605 -0.7924 -0.9005  0.4560
20612SOL     OW63276   7.604   0.766  10.470 -0.3331  0.4671 -0.0021
20612SOL    HW163277   7.554   0.846  10.454  0.9521  1.5767  1.2773
20612SOL    HW263278   7.591   0.747  10.563  0.0755 -0.3117 -0.0936
20613SOL     OW63279   3.120   1.181   3.331 -0.1294 -0.4607  0.3619
20613SOL    HW163280   3.208   1.215   3.317  0.4067 -1.3365  1.4738
20613SOL    HW263281   3.126   1.130   3.412 -1.9396  0.4611  1.1474
20614SOL     OW63282   2.873   5.455   9.250  0.3437 -0.2893  0.1585
20614SOL    HW163283   2.960   5.428   9.279  0.6581  1.3518  0.8812
20614SOL    HW263284   2.872   5.550   9.263 -1.8552 -0.3620  0.9635
20615SOL     OW63285   6.136   2.055   2.073  0.2850  0.0610  0.2636
20615SOL    HW163286   6.043   2.049   2.051  0.0086  0.9599  1.1095
20615SOL    HW263287   6.172   1.970   2.048 -1.0583 -0.8453  1.2524
20616SOL     OW63288   7.692   7.963   2.109 -0.2198 -0.4491  0.2557
20616SOL    HW163289   7.665   7.960   2.018 -0.7764 -0.5023  0.4223
20616SOL    HW263290   7.779   8.002   2.107 -0.3483 -0.1913 -0.2680
20617SOL     OW63291   2.819   4.815   7.544  0.1275  0.1675 -0.2077
20617SOL    HW163292   2.836   4.907   7.564 -0.3895  0.2710 -0.2380
20617SOL    HW263293   2.870   4.798   7.464  1.8368 -0.1237  0.8811
20618SOL     OW63294   2.631   3.624  12.144  0.0300  0.0119 -0.0152
20618SOL    HW163295   2.713   3.595  12.105  0.9847  0.3152  1.6590
20618SOL    HW263296   2.645   3.717  12.160 -0.5139 -0.0108  0.5952
20619SOL     OW63297   7.061   4.574  10.397  0.1309 -0.1787 -0.1406
20619SOL    HW163298   7.111   4.632  10.340 -2.0539 -0.9596 -3.1567
20619SOL    HW263299   7.124   4.507  10.424  1.2641  0.0828 -1.9244
20620SOL     OW63300   6.926   4.611   6.227  0.0935  0.4494  0.6379
20620SOL    HW163301   6.846   4.618   6.279  0.6477 -0.5826  1.6966
20620SOL    HW263302   6.996   4.618   6.292  0.8401  0.2482 -0.1315
20621SOL     OW63303   2.132   5.978   8.611  0.6378 -0.9034  0.2618
20621SOL    HW163304   2.203   5.967   8.674  1.6877 -2.3683 -1.1125
20621SOL    HW263305   2.163   6.047   8.552  1.2298 -1.9425 -0.6840
20622SOL     OW63306   4.987   6.599  10.218 -0.2356  0.1000 -0.2482
20622SOL    HW163307   4.983   6.512  10.179 -1.1718  0.2857 -0.5870
20622SOL    HW263308   5.045   6.648  10.161  1.8257 -0.7869  0.9627
20623SOL     OW63309   4.920   3.519   5.449  0.0499  0.0527  0.1750
20623SOL    HW163310   4.866   3.447   5.415 -0.0560  1.2301 -2.3720
20623SOL    HW263311   4.860   3.570   5.504 -1.0167  0.3749 -1.2293
20624SOL     OW63312   2.446   2.343  12.320  0.1235  0.2162 -0.3402
20624SOL    HW163313   2.524   2.396  12.336 -0.6542  0.7503  2.1600
20624SOL    HW263314   2.473   2.279  12.255  2.9437 -0.1741  1.0617
20625SOL     OW63315   6.708   4.462   9.755 -0.3219 -0.0647 -0.2200
20625SOL    HW163316   6.751   4.489   9.675  0.6826 -0.3758  0.1973
20625SOL    HW263317   6.652   4.389   9.729 -0.9903  0.6483 -0.8501
20626SOL     OW63318   1.638   6.875   0.732 -0.1682 -1.0567  0.6899
20626SOL    HW163319   1.633   6.821   0.653  0.0127  1.1622 -0.9336
20626SOL    HW263320   1.599   6.958   0.707  2.2874  0.6498  2.0716
20627SOL     OW63321   3.027   0.075   6.277  0.0562 -0.7287 -0.5827
20627SOL    HW163322   3.076   0.044   6.354 -1.3991 -3.1251 -0.5263
20627SOL    HW263323   3.086   0.138   6.236  2.3763 -2.0011  0.5482
20628SOL     OW63324   3.364   3.032  10.072  0.4439 -0.2904 -0.2509
20628SOL    HW163325   3.454   3.034  10.105  0.1252  0.6662  0.6069
20628SOL    HW263326   3.361   3.100  10.006  0.2750 -0.1030 -0.0528
20629SOL     OW63327   5.350   7.534   4.114  0.1049  0.3319 -0.1211
20629SOL    HW163328   5.424   7.476   4.095  0.0297  0.1892  0.0156
20629SOL    HW263329   5.339   7.528   4.209 -1.0995 -0.9207 -0.3050
20630SOL     OW63330   1.701   4.844   4.854 -0.2062 -0.7470  0.1878
20630SOL    HW163331   1.709   4.836   4.759 -0.6546  0.6073  0.0169
20630SOL    HW263332   1.792   4.854   4.885 -0.1551  0.0905 -0.2309
20631SOL     OW63333   0.835   5.098   3.740 -0.2625 -0.2201 -0.3992
20631SOL    HW163334   0.793   5.080   3.655  0.2869 -0.2866 -0.6628
20631SOL    HW263335   0.853   5.192   3.738  0.3358 -0.3364 -0.6307
20632SOL     OW63336   4.392   3.672  11.800  0.9604 -0.2382 -0.2443
20632SOL    HW163337   4.427   3.760  11.809  1.1867 -0.2347 -1.0803
20632SOL    HW263338   4.383   3.659  11.706  0.7273 -1.0299 -0.1223
20633SOL     OW63339   5.831   6.603   3.526 -0.2186 -0.3138  0.6570
20633SOL    HW163340   5.855   6.651   3.446 -2.5849 -1.7311 -1.0354
20633SOL    HW263341   5.802   6.672   3.587  0.2748  0.6990 -0.2169
20634SOL     OW63342   5.639   2.931   1.042 -0.2298  0.0423 -0.0401
20634SOL    HW163343   5.675   2.905   1.127 -1.4405 -1.7196 -0.0111
20634SOL    HW263344   5.698   2.892   0.978 -0.5120 -0.4565  0.0018
20635SOL     OW63345   5.012   5.958   5.133  0.2061 -0.2198 -0.4352
20635SOL    HW163346   5.038   6.040   5.177  2.0587 -0.6013 -0.7614
20635SOL    HW263347   4.918   5.951   5.152  0.2500  1.3451  0.6386
20636SOL     OW63348   1.213   4.122   4.335  0.0056 -0.3418  0.4345
20636SOL    HW163349   1.131   4.171   4.329  0.7922  0.9527 -0.0732
20636SOL    HW263350   1.197   4.056   4.403 -0.9330  0.9036  1.4699
20637SOL     OW63351   3.328   2.535   8.073 -0.0529  0.8018  0.7274
20637SOL    HW163352   3.295   2.565   8.158 -1.0895  0.9427  0.2978
20637SOL    HW263353   3.360   2.614   8.030  2.1851  0.4739  1.6786
20638SOL     OW63354   4.815   2.215   5.282  0.3512 -0.3028 -0.0664
20638SOL    HW163355   4.871   2.181   5.212  0.2752 -1.2477  0.3275
20638SOL    HW263356   4.818   2.310   5.270  1.8900 -0.3395 -0.1703
20639SOL     OW63357   4.604   1.456   5.200 -0.0193  0.4096  0.1284
20639SOL    HW163358   4.510   1.471   5.210 -0.1135  1.0069 -1.3801
20639SOL    HW263359   4.621   1.470   5.106  1.4982 -0.1124  0.2919
20640SOL     OW63360   0.843   7.271   9.267  0.4670 -0.0831  0.1483
20640SOL    HW163361   0.905   7.296   9.336  0.5851 -1.3916  0.5355
20640SOL    HW263362   0.767   7.239   9.315 -0.3254  1.0480 -0.3309
20641SOL     OW63363   1.149   0.536   4.004 -0.2091 -0.3541  0.0423
20641SOL    HW163364   1.126   0.620   3.964  0.5320 -0.0179  0.3039
20641SOL    HW263365   1.067   0.502   4.039 -0.7184 -0.2475 -0.9989
20642SOL     OW63366   3.344   1.985   4.370 -0.6035  0.2037 -0.0002
20642SOL    HW163367   3.346   1.913   4.432  1.8458 -0.0804 -0.3303
20642SOL    HW263368   3.345   2.064   4.424 -0.8908 -0.0150  0.3271
20643SOL     OW63369   4.202   6.419  11.290  1.1472  0.5352 -0.1912
20643SOL    HW163370   4.224   6.363  11.364 -0.6027 -1.4176 -1.0547
20643SOL    HW263371   4.263   6.393  11.221 -0.1365 -0.9395 -0.8301
20644SOL     OW63372   7.841   6.611   8.562 -0.3471  0.7443  0.5048
20644SOL    HW163373   7.922   6.655   8.537 -1.2917  2.5776  0.4407
20644SOL    HW263374   7.838   6.617   8.657  0.1696 -0.4437  0.6067
20645SOL     OW63375   1.115   2.989   8.499  0.5650  0.5147  0.0623
20645SOL    HW163376   1.083   3.075   8.527 -1.3889 -0.3388  0.6610
20645SOL    HW263377   1.054   2.927   8.540  1.6762 -1.1352 -0.6857
20646SOL     OW63378   2.416   7.744   2.136 -0.1089  0.1251  0.0488
20646SOL    HW163379   2.370   7.743   2.220  1.5643  0.0527  1.0183
20646SOL    HW263380   2.350   7.769   2.072 -1.1009  1.7160  1.6121
20647SOL     OW63381   6.739   1.695   8.727  0.2503  0.0113  0.1761
20647SOL    HW163382   6.682   1.767   8.701 -3.8224 -2.6573  0.9072
20647SOL    HW263383   6.734   1.632   8.655 -1.2558 -2.0786  1.9728
20648SOL     OW63384   7.955   2.263   3.075 -0.0485 -0.0103 -0.4676
20648SOL    HW163385   7.972   2.202   3.003 -1.8759 -2.1490  0.7709
20648SOL    HW263386   7.993   2.220   3.151  0.5534  1.5173  0.1284
20649SOL     OW63387   0.314   6.860   8.710 -0.0045 -0.2734  0.5995
20649SOL    HW163388   0.408   6.865   8.691 -0.4606 -0.0884 -1.9600
20649SOL    HW263389   0.289   6.950   8.732 -0.1891  0.5062 -2.3822
20650SOL     OW63390   7.183   5.690   2.862  0.4575 -0.0321 -0.5127
20650SOL    HW163391   7.110   5.665   2.919 -0.2653 -0.6840 -1.6835
20650SOL    HW263392   7.194   5.784   2.879  1.7358 -0.5782  2.2802
20651SOL     OW63393   2.589   3.806   3.540 -0.0984 -0.1738  0.2969
20651SOL    HW163394   2.654   3.867   3.577  0.4188 -0.5813  0.0687
20651SOL    HW263395   2.509   3.826   3.588  0.9387 -1.8986  2.9969
20652SOL     OW63396   2.496   2.234  11.316 -0.0773  0.5924 -0.2569
20652SOL    HW163397   2.436   2.276  11.255  0.8099 -0.6964 -2.1167
20652SOL    HW263398   2.559   2.188  11.260  0.9916 -0.3736  1.6361
20653SOL     OW63399   4.273   6.100   5.325 -0.5024  0.1692  0.6177
20653SOL    HW163400   4.322   6.029   5.365 -1.2301  0.0785  1.3848
20653SOL    HW263401   4.323   6.123   5.247 -1.5112 -2.9049 -1.1357
20654SOL     OW63402   4.461   2.014  12.093 -0.5118  0.1484 -0.2089
20654SOL    HW163403   4.373   2.032  12.058 -0.7490  1.3051  0.9102
20654SOL    HW263404   4.507   1.972  12.020 -1.5551  0.7929 -1.2822
20655SOL     OW63405   3.515   6.303   1.660 -0.6989 -0.1718 -0.3215
20655SOL    HW163406   3.565   6.222   1.652 -1.9845 -1.2216  1.4418
20655SOL    HW263407   3.553   6.347   1.737 -0.2351  0.7558 -1.0612
20656SOL     OW63408   2.967   3.316   4.681 -0.0857 -1.0178  0.3773
20656SOL    HW163409   3.052   3.314   4.637  0.9839  0.5016  2.2017
20656SOL    HW263410   2.937   3.406   4.671 -1.0605 -1.3106  0.5512
20657SOL     OW63411   1.568   6.040   3.900 -0.4085 -0.0707  0.4674
20657SOL    HW163412   1.574   5.985   3.822 -1.0639 -0.8865  0.9790
20657SOL    HW263413   1.479   6.027   3.932  0.1081 -0.3941  1.8291
20658SOL     OW63414   3.321   5.419   3.136 -0.0503 -0.1614 -0.6860
20658SOL    HW163415   3.319   5.326   3.110 -1.2857 -0.4571  0.3942
20658SOL    HW263416   3.283   5.465   3.061  0.5791 -0.5076 -1.2336
20659SOL     OW63417   5.418   6.102  10.136 -0.7401 -0.5298 -0.0527
20659SOL    HW163418   5.419   6.013  10.098  0.0304 -1.6893  2.4839
20659SOL    HW263419   5.354   6.097  10.207 -1.1393  1.1843 -0.2433
20660SOL     OW63420   4.110   1.017   1.533 -0.0067 -0.4504 -0.1636
20660SOL    HW163421   4.072   0.936   1.566  0.2919 -0.6264 -0.2426
20660SOL    HW263422   4.167   1.048   1.605 -0.5253 -0.0270  0.0755
20661SOL     OW63423   5.656   6.391  10.779  0.3249  0.0832  0.1004
20661SOL    HW163424   5.601   6.382  10.701  1.1431  0.8344 -0.5922
20661SOL    HW263425   5.603   6.355  10.850 -0.5094 -0.4724 -0.7661
20662SOL     OW63426   0.179   7.275   1.795 -0.2932  0.7301 -0.7184
20662SOL    HW163427   0.182   7.231   1.710  1.6833 -0.8919  0.1164
20662SOL    HW263428   0.097   7.246   1.834  0.4027 -1.3523 -0.6937
20663SOL     OW63429   1.281   0.974  11.613 -0.0381 -0.5152  0.7431
20663SOL    HW163430   1.194   0.947  11.645 -0.3752 -0.6824 -0.2684
20663SOL    HW263431   1.342   0.913  11.654 -0.2576  0.3214  2.3839
20664SOL     OW63432   2.559   7.232  12.218 -0.2140 -0.0254 -0.4147
20664SOL    HW163433   2.574   7.218  12.312  1.0726 -0.5943 -0.6853
20664SOL    HW263434   2.638   7.199  12.176 -1.2066 -0.7418 -1.7887
20665SOL     OW63435   4.355   6.878  11.640 -0.1200 -0.1255  0.2673
20665SOL    HW163436   4.293   6.887  11.712  0.1623 -0.1296  0.5083
20665SOL    HW263437   4.313   6.925  11.567 -0.7597 -0.7745  0.2025
20666SOL     OW63438   0.162   6.889  10.051 -0.2158  0.3820  0.0256
20666SOL    HW163439   0.208   6.859  10.129 -0.5114  1.6544  0.7213
20666SOL    HW263440   0.230   6.892   9.983 -0.3775 -2.7838 -0.4099
20667SOL     OW63441   5.130   0.074   0.340  0.0524 -0.3259  0.2521
20667SOL    HW163442   5.213   0.049   0.299  0.7543  0.6457  1.0549
20667SOL    HW263443   5.155   0.120   0.420 -1.2281  0.9641 -0.0448
20668SOL     OW63444   5.584   1.729   4.486 -0.4960 -0.6855 -0.0689
20668SOL    HW163445   5.606   1.752   4.576 -1.6758 -1.7583  0.5155
20668SOL    HW263446   5.504   1.779   4.467  0.7474  1.0129 -1.2160
20669SOL     OW63447   0.943   0.572   1.412  0.3791  0.0698 -0.2775
20669SOL    HW163448   0.954   0.500   1.473  0.7061  0.6611  0.3785
20669SOL    HW263449   0.994   0.644   1.450  1.8105  0.0254 -1.9823
20670SOL     OW63450   6.460   6.704   2.307 -0.1665 -0.1348 -0.5699
20670SOL    HW163451   6.452   6.738   2.396  1.5143  0.9707 -0.8016
20670SOL    HW263452   6.536   6.749   2.271 -0.2152 -1.3095 -2.2364
20671SOL     OW63453   7.506   2.883  11.876 -0.5815  0.2920  0.2922
20671SOL    HW163454   7.555   2.807  11.906  0.5636  0.6644 -0.5421
20671SOL    HW263455   7.491   2.935  11.955 -0.7815 -0.4677  0.7582
20672SOL     OW63456   3.064   6.090   0.933 -0.3100  0.5316  0.7871
20672SOL    HW163457   3.119   6.020   0.899 -0.1920  0.5502  0.9407
20672SOL    HW263458   2.974   6.060   0.916 -0.2499  1.1727 -0.8235
20673SOL     OW63459   7.404   3.643   4.066 -0.2380 -0.3942  0.1048
20673SOL    HW163460   7.466   3.707   4.101 -0.2103 -0.3231 -0.0759
20673SOL    HW263461   7.319   3.686   4.072 -0.3865 -0.7961  1.1140
20674SOL     OW63462   4.533   2.575   9.507  0.2163  0.1843  0.0556
20674SOL    HW163463   4.454   2.552   9.456 -0.3808  0.6735  0.7370
20674SOL    HW263464   4.542   2.670   9.494  0.4700  0.1923  0.2894
20675SOL     OW63465   0.247   2.917  11.155 -0.3543  0.1751 -0.3873
20675SOL    HW163466   0.292   3.001  11.154 -1.2594  0.6781 -0.4404
20675SOL    HW263467   0.285   2.869  11.229 -1.6746  1.6944  1.3777
20676SOL     OW63468   0.608   5.950  10.239 -0.0940  0.3777  0.0392
20676SOL    HW163469   0.592   5.993  10.323  0.6727 -1.3779  1.1476
20676SOL    HW263470   0.522   5.946  10.198 -0.9958 -0.9282  1.8858
20677SOL     OW63471   4.464   0.619   7.208  0.1988 -0.5839 -0.0706
20677SOL    HW163472   4.371   0.595   7.201  0.3729 -1.5640  0.6241
20677SOL    HW263473   4.499   0.557   7.272  1.3683 -0.3150 -0.4303
20678SOL     OW63474   1.750   7.771   1.809  0.2056 -0.3410 -0.3340
20678SOL    HW163475   1.819   7.769   1.742 -0.5090 -0.2608 -1.0809
20678SOL    HW263476   1.737   7.865   1.827 -0.1051 -0.3329 -0.6039
20679SOL     OW63477   3.341   4.527   0.286 -0.2527 -0.5988  0.3734
20679SOL    HW163478   3.291   4.446   0.285  1.1401 -1.4923 -0.7417
20679SOL    HW263479   3.407   4.516   0.218  0.5950  1.0824  0.8519
20680SOL     OW63480   6.317   2.576  12.055 -0.0034 -0.3887  0.2017
20680SOL    HW163481   6.374   2.549  11.983  0.8710 -0.8988  1.0693
20680SOL    HW263482   6.241   2.519  12.048 -0.8057  0.7854 -1.4136
20681SOL     OW63483   0.398   2.481   1.584 -0.2259 -0.2384  0.7350
20681SOL    HW163484   0.437   2.515   1.504 -0.5672  0.1804  0.7433
20681SOL    HW263485   0.397   2.386   1.572  0.7819 -0.2639  0.7370
20682SOL     OW63486   6.846   4.803   8.217 -0.0441  0.1119 -0.6399
20682SOL    HW163487   6.814   4.719   8.251 -1.4084  0.2374 -1.5426
20682SOL    HW263488   6.892   4.781   8.136  1.2074  0.0650  0.0533
20683SOL     OW63489   0.889   1.834   2.773 -0.0940 -0.1911 -0.3564
20683SOL    HW163490   0.961   1.846   2.835  0.4585 -2.3164 -0.5170
20683SOL    HW263491   0.811   1.860   2.822  0.4955 -0.4315  0.7534
20684SOL     OW63492   3.989   3.256  12.068 -0.0260 -0.1956  1.1290
20684SOL    HW163493   3.939   3.185  12.106 -0.3963 -0.2815  0.4934
20684SOL    HW263494   4.052   3.213  12.010 -1.6875  0.0528 -0.9606
20685SOL     OW63495   7.230   1.680   0.534 -0.0197 -0.1766  0.8311
20685SOL    HW163496   7.234   1.769   0.567 -0.5889 -0.7135  2.4464
20685SOL    HW263497   7.201   1.690   0.443  0.4637  1.2967  0.8107
20686SOL     OW63498   2.407   7.097   8.475  0.2338 -0.1617  0.6329
20686SOL    HW163499   2.337   7.132   8.530  1.3094 -1.1508  2.7126
20686SOL    HW263500   2.381   7.006   8.457 -0.1445  0.1675 -0.6266
20687SOL     OW63501   7.802   6.243   9.521 -0.1444 -0.2579  0.2037
20687SOL    HW163502   7.834   6.158   9.551 -1.2330 -0.7119  0.1176
20687SOL    HW263503   7.715   6.225   9.485 -0.6642  0.9902  0.7580
20688SOL     OW63504   7.937   0.487   4.177  0.1853 -0.3013  0.1391
20688SOL    HW163505   7.918   0.406   4.131  0.8811 -0.2910 -0.1757
20688SOL    HW263506   7.911   0.556   4.116  0.4412 -0.2896  0.0411
20689SOL     OW63507   0.577   7.378  12.157  0.1411 -0.6858  0.2795
20689SOL    HW163508   0.629   7.435  12.215 -0.7574  0.5788 -0.1177
20689SOL    HW263509   0.588   7.291  12.194  0.6004 -0.0916  1.6227
20690SOL     OW63510   3.384   5.896   9.012  0.0860  0.5639 -0.6168
20690SOL    HW163511   3.379   5.991   9.003 -1.2359  0.3442 -2.6510
20690SOL    HW263512   3.404   5.864   8.924  1.4661 -1.0271  0.2072
20691SOL     OW63513   7.789   7.385  11.125 -0.5221 -0.4064  0.1899
20691SOL    HW163514   7.707   7.361  11.168 -0.4820 -1.2617 -0.1904
20691SOL    HW263515   7.856   7.368  11.192 -0.6690  0.5684  0.5997
20692SOL     OW63516   4.284   3.350   7.928 -0.0205 -0.5377  0.6207
20692SOL    HW163517   4.267   3.418   7.993 -0.8780  0.1203 -0.2705
20692SOL    HW263518   4.347   3.292   7.970  1.3778  1.2446  1.1052
20693SOL     OW63519   3.444   2.437   9.582  0.0804 -0.3079  0.2005
20693SOL    HW163520   3.375   2.395   9.530  1.1094 -0.7015 -0.8983
20693SOL    HW263521   3.439   2.530   9.557 -0.4121 -0.2315  0.5617
20694SOL     OW63522   4.616   1.150   0.878  0.5928  0.2384 -0.1330
20694SOL    HW163523   4.630   1.143   0.973  0.2762 -0.1222 -0.1080
20694SOL    HW263524   4.684   1.210   0.848 -1.3234  3.0748  0.7818
20695SOL     OW63525   2.082   2.777  10.786 -0.0571 -0.1935  0.1068
20695SOL    HW163526   2.087   2.814  10.874 -1.1781 -0.0251  0.1175
20695SOL    HW263527   2.015   2.829  10.742  0.6715 -0.1175 -0.9331
20696SOL     OW63528   3.975   7.747  11.043 -0.1191  0.0034  0.0304
20696SOL    HW163529   4.066   7.762  11.015  0.0479 -0.3828  0.3726
20696SOL    HW263530   3.937   7.835  11.048  0.6092  0.2703  1.1581
20697SOL     OW63531   2.160   0.642   5.993 -0.3647  1.2831 -0.2286
20697SOL    HW163532   2.178   0.584   5.919  0.2457  1.9383 -0.5998
20697SOL    HW263533   2.069   0.623   6.016  0.3310 -1.1272  0.8308
20698SOL     OW63534   4.371   4.938   0.614 -0.2526 -0.0550  0.2767
20698SOL    HW163535   4.325   5.009   0.569 -0.6728 -0.3687  0.2018
20698SOL    HW263536   4.315   4.861   0.600  0.1263 -0.3687  0.4761
20699SOL     OW63537   2.819   7.679   4.550 -0.6237  0.4005 -0.0966
20699SOL    HW163538   2.841   7.596   4.507 -1.0431  0.5464 -0.6128
20699SOL    HW263539   2.875   7.744   4.507  0.8411  0.1616  1.3835
20700SOL     OW63540   5.245   3.262   5.243 -0.2050  0.1821  0.0538
20700SOL    HW163541   5.302   3.185   5.252 -0.6357 -0.0439  1.0286
20700SOL    HW263542   5.161   3.227   5.214  0.1270  0.5140 -1.3597
20701SOL     OW63543   1.268   4.587   5.085 -0.1248  0.3253  0.2019
20701SOL    HW163544   1.177   4.613   5.092 -0.0850  0.9475 -1.2698
20701SOL    HW263545   1.304   4.599   5.173 -1.6812 -0.9055  1.0589
20702SOL     OW63546   2.108   2.000  11.833 -0.4075 -0.4885 -0.1345
20702SOL    HW163547   2.098   1.989  11.927  0.9188  2.1205  0.4151
20702SOL    HW263548   2.152   2.085  11.823 -1.1759 -0.3081 -3.1330
20703SOL     OW63549   7.151   0.495   7.029  0.0811 -0.0564 -0.1620
20703SOL    HW163550   7.107   0.490   6.944 -2.0263 -0.3378  0.8613
20703SOL    HW263551   7.168   0.403   7.052 -0.8679 -0.1055  0.4127
20704SOL     OW63552   5.682   1.364  11.346  0.4076 -0.8908 -0.0136
20704SOL    HW163553   5.761   1.398  11.303  0.8185 -0.1366  1.3059
20704SOL    HW263554   5.662   1.283  11.297  1.9965 -1.1181 -0.3582
20705SOL     OW63555   4.663   4.420   5.671 -0.4905 -0.4618 -0.2144
20705SOL    HW163556   4.690   4.510   5.650  1.0852 -0.3366  2.0133
20705SOL    HW263557   4.577   4.430   5.712 -0.3618  0.0159 -0.0508
20706SOL     OW63558   7.167   2.296   1.893  0.1100 -0.3836 -0.5370
20706SOL    HW163559   7.154   2.391   1.892  1.2344 -0.2091 -0.8549
20706SOL    HW263560   7.080   2.259   1.878 -0.2094  0.6254 -1.3043
20707SOL     OW63561   3.281   4.027   7.204 -0.0356 -0.5665 -0.4169
20707SOL    HW163562   3.257   4.110   7.163 -1.1181 -0.1556  0.9870
20707SOL    HW263563   3.219   3.964   7.169 -0.2567 -0.4420 -0.2519
20708SOL     OW63564   5.325   7.843   4.927  0.5357  0.0090 -0.7308
20708SOL    HW163565   5.299   7.918   4.980  1.5324  0.0577 -0.3071
20708SOL    HW263566   5.334   7.878   4.839 -1.5740 -0.1613 -1.0798
20709SOL     OW63567   0.468   6.002   2.517 -0.5799  0.2705 -0.2433
20709SOL    HW163568   0.488   5.913   2.545 -0.2909  0.2817 -0.4106
20709SOL    HW263569   0.491   6.057   2.592  2.0118  0.5022 -1.0975
20710SOL     OW63570   5.836   7.315   9.327  0.0322 -0.0881 -0.2295
20710SOL    HW163571   5.748   7.294   9.295  0.1126  0.3194 -0.7411
20710SOL    HW263572   5.822   7.349   9.416 -0.2952 -0.3355 -0.1866
20711SOL     OW63573   3.513   0.547   7.258 -0.1099  0.4142 -0.1018
20711SOL    HW163574   3.540   0.492   7.332  1.1539  0.9909 -0.1089
20711SOL    HW263575   3.507   0.487   7.184  1.6909  0.3310 -0.2119
20712SOL     OW63576   1.589   1.618   4.492  0.1236 -0.2522 -0.0640
20712SOL    HW163577   1.530   1.644   4.562 -0.6394  2.1904 -1.5051
20712SOL    HW263578   1.660   1.572   4.536 -1.5773 -1.0809  1.9804
20713SOL     OW63579   4.697   6.781  11.873 -0.6226 -0.4058 -0.2801
20713SOL    HW163580   4.767   6.729  11.834 -0.3433 -0.2741  0.0411
20713SOL    HW263581   4.655   6.824  11.799  0.3789  0.4276 -0.3785
20714SOL     OW63582   6.299   0.370   9.379 -0.1281  0.0660  0.1957
20714SOL    HW163583   6.241   0.339   9.448 -0.9921  1.4697  0.1155
20714SOL    HW263584   6.387   0.354   9.413 -0.5423  0.1009  1.3158
20715SOL     OW63585   4.637   0.162   2.657 -0.0552  0.2196  0.1681
20715SOL    HW163586   4.575   0.090   2.653  2.2132 -1.9529  1.1333
20715SOL    HW263587   4.679   0.162   2.571  0.0382  0.2563  0.2128
20716SOL     OW63588   4.163   1.509   4.956  0.3065 -0.2447 -0.1244
20716SOL    HW163589   4.090   1.478   5.010  0.1687 -2.6006 -1.5582
20716SOL    HW263590   4.131   1.505   4.866  1.1529  1.8420 -0.5899
20717SOL     OW63591   3.998   5.720   4.918 -0.2400  0.0482  0.4126
20717SOL    HW163592   3.991   5.814   4.930 -0.9207 -0.1970  2.1998
20717SOL    HW263593   4.088   5.706   4.888 -0.5497  1.3511 -1.2960
20718SOL     OW63594   7.967   4.451   3.173 -0.4970  0.3101 -0.3199
20718SOL    HW163595   7.904   4.409   3.115  0.0984  0.5350 -1.1483
20718SOL    HW263596   7.971   4.542   3.143  0.8040  0.1174 -0.8134
20719SOL     OW63597   4.436   5.638   0.122  0.1082  0.5124 -0.5955
20719SOL    HW163598   4.353   5.611   0.160  0.2028  0.7319 -0.2287
20719SOL    HW263599   4.472   5.702   0.184  0.0585  1.2075 -1.2585
20720SOL     OW63600   4.659   1.704   2.644 -0.4825  0.2142 -0.1112
20720SOL    HW163601   4.570   1.671   2.646 -1.0337  1.1558 -3.2835
20720SOL    HW263602   4.711   1.633   2.607 -0.5493  0.7103 -1.2097
20721SOL     OW63603   4.928   7.066  12.258  1.1448  0.2391 -0.2658
20721SOL    HW163604   4.872   6.997  12.293 -2.0341  2.3053 -0.9104
20721SOL    HW263605   4.949   7.120  12.335 -0.1491  1.0078 -0.4322
20722SOL     OW63606   0.943   0.394   0.963 -0.3140  0.2459 -0.1105
20722SOL    HW163607   0.908   0.444   1.036 -0.1171  1.5832 -0.8905
20722SOL    HW263608   1.000   0.329   1.003 -0.6604  0.5695  0.9427
20723SOL     OW63609   0.761   0.069   0.579 -0.2144  0.2893 -0.3763
20723SOL    HW163610   0.768   0.158   0.614  0.4946 -0.0052  0.2483
20723SOL    HW263611   0.831   0.020   0.623 -0.8402 -0.6725 -0.4188
20724SOL     OW63612   0.261   6.019   0.339 -0.3056 -0.0271  0.4714
20724SOL    HW163613   0.193   5.992   0.278 -0.7338 -0.5143  1.1500
20724SOL    HW263614   0.215   6.031   0.422  0.9286 -3.9364  1.9297
20725SOL     OW63615   2.956   5.321  11.928  0.2379 -0.0316  0.0052
20725SOL    HW163616   2.955   5.408  11.967 -0.3809 -0.3699  0.7767
20725SOL    HW263617   2.911   5.332  11.844  0.4280  0.4438 -0.0398
20726SOL     OW63618   3.874   2.100   6.203 -0.5437  0.3119 -0.4190
20726SOL    HW163619   3.891   2.114   6.296 -1.2243  1.9127 -0.4968
20726SOL    HW263620   3.948   2.141   6.158 -1.6190  2.1528 -0.6138
20727SOL     OW63621   5.412   1.795   8.494 -0.4482 -0.3708  0.0461
20727SOL    HW163622   5.323   1.762   8.507  0.5813 -2.9121  1.5531
20727SOL    HW263623   5.403   1.863   8.428 -3.7593  0.8425  1.5040
20728SOL     OW63624   3.216   1.821   2.253  0.2205 -0.9694  0.7034
20728SOL    HW163625   3.246   1.760   2.185 -0.2824 -1.9700  1.3487
20728SOL    HW263626   3.295   1.866   2.282  0.8282 -2.2453  1.0976
20729SOL     OW63627   2.219   5.156   5.059 -0.0139 -0.4314  0.4335
20729SOL    HW163628   2.196   5.067   5.087  0.6418 -0.6831  0.1879
20729SOL    HW263629   2.285   5.143   4.991  0.4781  0.2623  0.7726
20730SOL     OW63630   4.921   1.469   9.391 -0.0500  0.1353  0.2956
20730SOL    HW163631   4.838   1.422   9.398  0.0959 -0.0677  0.6565
20730SOL    HW263632   4.906   1.534   9.321 -0.4911  0.0633  0.3226
20731SOL     OW63633   4.740   7.569   0.661  0.2217 -0.4717 -0.1549
20731SOL    HW163634   4.649   7.561   0.689 -0.1157  0.0974 -1.0668
20731SOL    HW263635   4.759   7.663   0.664  0.9515 -0.6318  0.5467
20732SOL     OW63636   3.559   0.343   5.910  0.0609  0.1978 -0.1776
20732SOL    HW163637   3.538   0.307   5.824 -0.1836 -1.0008  0.3628
20732SOL    HW263638   3.612   0.276   5.952  0.3572  0.8629  0.5311
20733SOL     OW63639   7.596   5.002   7.889 -0.5713  0.0840 -0.2629
20733SOL    HW163640   7.600   4.926   7.831  0.1056 -0.3217  0.3066
20733SOL    HW263641   7.687   5.020   7.913 -0.5337  2.1024 -1.6749
20734SOL     OW63642   6.291   1.873  12.399  0.0321  0.1331  0.1653
20734SOL    HW163643   6.385   1.854  12.403  0.1328  0.6949  0.5347
20734SOL    HW263644   6.280   1.926  12.320  0.2514  1.2677  0.8732
20735SOL     OW63645   3.582   5.187   0.321 -0.3670 -0.1008 -0.0718
20735SOL    HW163646   3.647   5.182   0.391 -0.6603 -0.1129  0.2040
20735SOL    HW263647   3.632   5.215   0.244 -0.1194  0.3803  0.2535
20736SOL     OW63648   7.912   4.011   5.213  0.1093 -0.2422  0.1419
20736SOL    HW163649   7.891   4.051   5.129  0.7825  1.2179  0.6397
20736SOL    HW263650   7.828   3.984   5.249 -0.3310  0.4260 -0.3664
20737SOL     OW63651   2.803   6.235  10.506 -0.5239  0.2493 -0.3271
20737SOL    HW163652   2.719   6.189  10.494 -1.3753  1.3795  1.0199
20737SOL    HW263653   2.860   6.169  10.546 -0.6059 -0.6671 -1.6573
20738SOL     OW63654   6.015   4.424   6.033 -0.0627  0.0348  0.1082
20738SOL    HW163655   6.076   4.420   5.959 -1.8237 -0.4592 -1.3619
20738SOL    HW263656   6.066   4.390   6.107  1.1997 -1.1169 -1.2366
20739SOL     OW63657   6.617   5.496   6.078  0.3591 -0.7421  0.4331
20739SOL    HW163658   6.595   5.438   6.005  1.9769 -0.6260 -0.1869
20739SOL    HW263659   6.677   5.560   6.040 -0.1882  0.4112  1.4663
20740SOL     OW63660   0.068   6.963   4.089  0.1089 -0.2005 -0.1774
20740SOL    HW163661   0.102   7.052   4.084 -0.1809 -0.0184  0.7765
20740SOL    HW263662  -0.004   6.969   4.152 -2.0390 -0.4787 -2.4676
20741SOL     OW63663   5.375   2.827   0.936  0.2016 -0.1278 -0.2855
20741SOL    HW163664   5.430   2.873   0.873 -0.7628  1.5146  0.0145
20741SOL    HW263665   5.409   2.853   1.021 -0.0691 -0.3522 -0.1044
20742SOL     OW63666   6.571   6.057   3.707 -0.2833 -0.5017 -0.1237
20742SOL    HW163667   6.505   6.112   3.751  0.2540 -0.2621  0.4008
20742SOL    HW263668   6.550   6.064   3.614 -1.3910 -0.9373  0.0682
20743SOL     OW63669   3.252   0.461   7.895  0.6093 -0.6256 -0.3862
20743SOL    HW163670   3.279   0.455   7.803  1.1670 -0.1792 -0.2627
20743SOL    HW263671   3.225   0.553   7.905 -1.8295 -1.2429 -0.7207
20744SOL     OW63672   3.728   7.538   1.545 -0.3113 -0.1145 -0.0041
20744SOL    HW163673   3.776   7.599   1.602  0.2700  1.2991 -1.9184
20744SOL    HW263674   3.647   7.520   1.593 -0.5449  2.2598  0.6162
20745SOL     OW63675   0.378   7.442  10.152 -0.2336 -0.0438 -0.2613
20745SOL    HW163676   0.293   7.485  10.160 -0.0609  1.2804 -3.7428
20745SOL    HW263677   0.361   7.366  10.097  0.7862  0.3533 -1.1758
20746SOL     OW63678   6.328   4.268   0.132  0.4043 -0.3369 -0.4580
20746SOL    HW163679   6.385   4.273   0.209 -0.7880 -0.1606  0.4567
20746SOL    HW263680   6.370   4.324   0.067  1.1151  0.0354  0.3012
20747SOL     OW63681   7.425   4.305   0.489 -0.3229 -0.0502  0.0830
20747SOL    HW163682   7.386   4.390   0.511 -0.0032 -0.3041  1.8105
20747SOL    HW263683   7.502   4.327   0.437 -0.1667  0.7474  0.6315
20748SOL     OW63684   1.074   6.897   0.224 -0.3321  0.4790 -0.2782
20748SOL    HW163685   1.037   6.942   0.300 -0.1343 -0.2416  0.2603
20748SOL    HW263686   1.094   6.967   0.162 -1.1048  1.0171  0.0639
20749SOL     OW63687   5.045   4.102   9.354 -0.4097 -0.2782  0.0413
20749SOL    HW163688   5.065   4.192   9.380 -3.6684  0.5572  0.1392
20749SOL    HW263689   5.075   4.048   9.427 -0.8502  1.0408  1.2381
20750SOL     OW63690   0.884   3.630   1.756  0.3589 -0.4435 -0.3044
20750SOL    HW163691   0.972   3.634   1.792 -0.6343 -0.6742  2.3796
20750SOL    HW263692   0.848   3.548   1.789 -1.0521 -0.0787 -0.8545
20751SOL     OW63693   6.101   5.736   0.649  0.2787 -0.8632 -0.1694
20751SOL    HW163694   6.164   5.800   0.618  0.8892 -1.3974 -0.0410
20751SOL    HW263695   6.076   5.766   0.736  0.7201 -0.9094 -0.0262
20752SOL     OW63696   1.497   4.260   4.153  0.0532  0.3557 -0.1810
20752SOL    HW163697   1.502   4.279   4.059  1.1953 -0.5199 -0.3202
20752SOL    HW263698   1.434   4.188   4.160  1.5984 -1.1175 -0.5775
20753SOL     OW63699   2.309   6.453  11.599 -0.0537 -0.1015  0.1110
20753SOL    HW163700   2.269   6.438  11.684  1.1431 -1.0104  0.5371
20753SOL    HW263701   2.309   6.549  11.590  0.5443  0.0582  1.5102
20754SOL     OW63702   2.262   4.725  10.884 -0.0715  0.3030  0.2421
20754SOL    HW163703   2.179   4.690  10.853  1.2506 -1.8222 -1.1989
20754SOL    HW263704   2.289   4.664  10.952  0.3660  0.8927  0.5994
20755SOL     OW63705   6.820   6.773   7.077  0.8473 -0.0327 -0.0274
20755SOL    HW163706   6.908   6.808   7.086  1.3837 -1.3998  0.3536
20755SOL    HW263707   6.795   6.746   7.166  0.6022 -0.8752 -0.3352
20756SOL     OW63708   5.878   4.108   8.076  0.3394 -0.5651  0.1455
20756SOL    HW163709   5.904   4.159   8.152  1.3568 -1.6777  0.5601
20756SOL    HW263710   5.957   4.060   8.050 -0.5324 -1.7886 -0.3374
20757SOL     OW63711   1.683   0.393   3.534  0.4769  0.0216  0.3345
20757SOL    HW163712   1.724   0.475   3.563 -1.1688  1.7991 -2.0143
20757SOL    HW263713   1.589   0.410   3.541  0.0746 -2.2146  1.0756
20758SOL     OW63714   6.291   2.886  11.084  0.2745 -0.0916 -0.0427
20758SOL    HW163715   6.383   2.912  11.079  0.1061  1.3464  2.6717
20758SOL    HW263716   6.294   2.790  11.084  1.9224 -0.0957  1.3787
20759SOL     OW63717   2.042   0.342   0.446  0.2024 -0.4846  0.5706
20759SOL    HW163718   2.024   0.376   0.534  0.8435 -0.6338  0.7657
20759SOL    HW263719   1.972   0.377   0.392  0.6501  0.8636  0.8311
20760SOL     OW63720   7.198   7.649   4.449 -0.1453 -0.3010  0.0691
20760SOL    HW163721   7.111   7.609   4.455 -1.5184  2.5640  0.6767
20760SOL    HW263722   7.186   7.723   4.390  2.2781 -0.6643 -0.9909
20761SOL     OW63723   4.304   1.238   2.681  0.0334 -0.1096  0.2333
20761SOL    HW163724   4.282   1.276   2.596  0.0241  0.7326  0.5944
20761SOL    HW263725   4.392   1.204   2.670  0.0514  0.0425 -0.1063
20762SOL     OW63726   1.028   4.519   9.896  0.0529 -0.3168  0.0343
20762SOL    HW163727   0.954   4.475   9.852  0.2919 -0.3930 -0.2967
20762SOL    HW263728   1.028   4.483   9.985  0.3209 -1.0826 -0.2699
20763SOL     OW63729   3.901   0.663   0.804  0.3468  0.5409 -0.0328
20763SOL    HW163730   3.906   0.746   0.757 -0.1388  0.1881 -0.7315
20763SOL    HW263731   3.990   0.628   0.801  0.4716  0.8554 -0.0656
20764SOL     OW63732   1.813   2.929  10.734 -0.3240 -0.2030  0.1924
20764SOL    HW163733   1.749   2.858  10.725  0.6041 -1.2324  1.2807
20764SOL    HW263734   1.819   2.943  10.829  0.6950  0.2153  0.0776
20765SOL     OW63735   4.659   0.231   3.075 -0.9077 -0.4382 -0.8621
20765SOL    HW163736   4.743   0.219   3.031  0.2132  0.6115  0.8357
20765SOL    HW263737   4.620   0.307   3.033  1.0654  1.8313  1.0318
20766SOL     OW63738   3.909   5.879   3.388 -0.1682 -0.1386 -0.2666
20766SOL    HW163739   3.891   5.956   3.442  0.9353  0.5629 -0.8660
20766SOL    HW263740   3.853   5.889   3.311  1.1323  0.9552 -1.1283
20767SOL     OW63741   5.316   0.686   1.277 -0.2243 -0.1344 -0.0464
20767SOL    HW163742   5.318   0.681   1.372  2.5554  0.2084 -0.0134
20767SOL    HW263743   5.392   0.637   1.248 -0.5912  0.3821 -2.0756
20768SOL     OW63744   5.883   7.376   1.583 -0.2507  0.1931 -0.4592
20768SOL    HW163745   5.866   7.347   1.672 -1.4515 -0.2109 -0.7965
20768SOL    HW263746   5.965   7.332   1.558 -0.2807 -0.2427  0.1981
20769SOL     OW63747   0.465   7.904   6.433  0.5335  0.0230 -0.1031
20769SOL    HW163748   0.484   7.998   6.428 -0.6421  0.2228 -1.3230
20769SOL    HW263749   0.370   7.900   6.448  0.6399 -0.9766  0.3957
20770SOL     OW63750   5.181   7.553  11.522 -0.6106 -0.3901 -0.2843
20770SOL    HW163751   5.156   7.462  11.538 -1.8314 -0.1280 -0.6068
20770SOL    HW263752   5.122   7.604  11.577 -0.1374  0.2231 -0.3384
20771SOL     OW63753   4.754   6.957   3.278  0.2070 -0.1248  0.4956
20771SOL    HW163754   4.684   6.936   3.216 -0.3690 -0.6474  1.2852
20771SOL    HW263755   4.797   6.874   3.295  2.1941  0.4714 -1.2971
20772SOL     OW63756   0.700   6.411   4.161 -0.1178 -0.3642 -0.3974
20772SOL    HW163757   0.795   6.398   4.169  0.1330 -1.8705 -4.0053
20772SOL    HW263758   0.662   6.346   4.219  1.0432 -0.3802  0.3857
20773SOL     OW63759   1.976   0.062   7.726  0.2509  0.1431  0.3859
20773SOL    HW163760   1.944   0.078   7.637 -1.4253 -1.3143  0.6728
20773SOL    HW263761   2.070   0.045   7.715 -0.1499 -1.2780 -1.2959
20774SOL     OW63762   0.507   5.028   5.269 -0.5742  0.4771  0.0736
20774SOL    HW163763   0.552   4.972   5.332  1.4861  0.0582 -1.6378
20774SOL    HW263764   0.414   5.011   5.284 -0.0919 -1.1122  1.6155
20775SOL     OW63765   4.702   5.221   3.777 -0.0725 -0.2746 -0.5200
20775SOL    HW163766   4.712   5.206   3.871 -1.1794  3.8409  0.4533
20775SOL    HW263767   4.608   5.234   3.765  0.1320 -0.0613 -2.0793
20776SOL     OW63768   3.079   4.751   8.005 -0.0461 -0.5256  0.1780
20776SOL    HW163769   3.166   4.715   8.024 -0.1221  0.0191  1.6481
20776SOL    HW263770   3.096   4.823   7.944  0.4801 -0.7146  0.0950
20777SOL     OW63771   4.280   2.247  12.406  0.2334 -0.1215 -0.3399
20777SOL    HW163772   4.292   2.274  12.497 -0.5303  2.1572 -0.8511
20777SOL    HW263773   4.369   2.230  12.375  0.5375 -0.5473  0.7241
20778SOL     OW63774   3.981   0.919   4.589 -0.1054 -0.1582  0.3650
20778SOL    HW163775   3.988   1.000   4.638 -0.0752  0.8074 -1.1509
20778SOL    HW263776   3.904   0.930   4.534  0.8030 -0.4545 -1.0325
20779SOL     OW63777   5.715   5.087   5.223 -0.7658  0.2372 -0.2219
20779SOL    HW163778   5.727   5.142   5.145 -0.2693  0.4431 -0.0055
20779SOL    HW263779   5.740   5.144   5.296 -3.1129  0.7025  0.2887
20780SOL     OW63780   6.787   3.406  10.055 -0.3695 -0.3817 -0.5735
20780SOL    HW163781   6.881   3.423  10.060 -0.3509  0.2137 -2.1071
20780SOL    HW263782   6.761   3.446   9.972 -1.7674 -1.5400 -0.7261
20781SOL     OW63783   5.405   7.387   8.261 -0.0149 -0.1177 -0.4548
20781SOL    HW163784   5.351   7.462   8.286 -0.2171 -0.6527  0.8019
20781SOL    HW263785   5.354   7.342   8.194 -1.2474 -0.7064  0.8239
20782SOL     OW63786   2.213   7.120   0.750 -0.6382 -0.3548 -0.4529
20782SOL    HW163787   2.134   7.085   0.792 -0.5192 -0.5766 -0.4124
20782SOL    HW263788   2.277   7.049   0.757 -0.0256  0.2792  0.6478
20783SOL     OW63789   2.634   4.239   2.536 -0.0652  0.1425 -0.2296
20783SOL    HW163790   2.610   4.147   2.543 -0.4239  0.0026 -2.4907
20783SOL    HW263791   2.618   4.261   2.444  2.2671  1.8197 -0.3315
20784SOL     OW63792   6.727   6.180   2.724 -0.6123  0.5518 -0.1061
20784SOL    HW163793   6.670   6.193   2.800 -0.0958  1.0766  0.2012
20784SOL    HW263794   6.695   6.242   2.659 -1.7667 -0.6578 -0.7602
20785SOL     OW63795   4.555   0.920   0.701 -0.2229 -0.2219 -0.5156
20785SOL    HW163796   4.521   0.955   0.619  1.2093 -0.2776 -1.1529
20785SOL    HW263797   4.558   0.995   0.760  0.3737  0.1906 -1.0617
20786SOL     OW63798   1.243   3.098  10.685 -0.3342  0.3969 -0.5361
20786SOL    HW163799   1.165   3.153  10.681 -1.6685 -1.4292 -1.3981
20786SOL    HW263800   1.300   3.131  10.616 -2.3206 -0.9095 -2.9843
20787SOL     OW63801   5.104   1.871   5.890 -0.7665  0.6166  0.3006
20787SOL    HW163802   5.019   1.915   5.883 -0.6177  0.8128 -0.3199
20787SOL    HW263803   5.115   1.855   5.984 -1.5062  0.5521  0.3796
20788SOL     OW63804   6.224   3.430  10.003 -0.4879  0.2073  0.7253
20788SOL    HW163805   6.240   3.358  10.064  0.6707  0.2914  0.5434
20788SOL    HW263806   6.311   3.462   9.981 -0.8172 -0.4279 -1.7143
20789SOL     OW63807   3.632   2.468   2.314  0.1309 -0.4832  0.7958
20789SOL    HW163808   3.592   2.385   2.288  1.0678 -0.9112  0.6802
20789SOL    HW263809   3.643   2.460   2.409  0.6812 -0.7141  0.7203
20790SOL     OW63810   0.078   5.821   5.768 -0.1328  0.2287 -0.0770
20790SOL    HW163811   0.130   5.898   5.747 -2.1335  1.3504 -1.1784
20790SOL    HW263812   0.054   5.833   5.860  1.4803 -0.3174  0.4581
20791SOL     OW63813   7.574   3.015   7.227 -0.4659  0.0598  0.1108
20791SOL    HW163814   7.550   2.984   7.140  1.1451  0.2427 -0.4266
20791SOL    HW263815   7.578   3.110   7.219 -1.4375  0.1676  0.7069
20792SOL     OW63816   2.477   2.180   9.812  0.2812 -0.2716 -0.0143
20792SOL    HW163817   2.398   2.131   9.836  1.2323 -0.7920  2.3017
20792SOL    HW263818   2.446   2.269   9.796 -1.0085 -0.8714 -1.1215
20793SOL     OW63819   5.669   7.454  11.488  0.0246  0.2114 -0.6667
20793SOL    HW163820   5.626   7.368  11.493  1.0580 -0.2571  1.8653
20793SOL    HW263821   5.601   7.516  11.513 -0.1282 -0.1703 -0.0851
20794SOL     OW63822   7.690   0.332   2.766  0.9946  0.4649 -0.2076
20794SOL    HW163823   7.610   0.310   2.813  1.3722 -0.0931  0.1930
20794SOL    HW263824   7.666   0.407   2.711  0.6705  1.4683  1.2483
20795SOL     OW63825   0.827   1.805   1.105 -0.2801  0.6570  0.2344
20795SOL    HW163826   0.807   1.778   1.016  0.3431 -2.9166  1.0207
20795SOL    HW263827   0.879   1.733   1.141  0.7903  2.6397  3.0325
20796SOL     OW63828   0.361   3.335  12.239 -0.8050  0.3515 -0.5864
20796SOL    HW163829   0.357   3.245  12.271  0.1830  0.4063 -0.2600
20796SOL    HW263830   0.294   3.382  12.289 -0.0813  0.1787  0.5765
20797SOL     OW63831   0.089   4.490   6.467 -0.0055 -0.2586  0.0490
20797SOL    HW163832   0.001   4.470   6.435  0.8893 -0.6213 -2.3086
20797SOL    HW263833   0.086   4.468   6.560 -2.4537 -0.0604  0.0745
20798SOL     OW63834   4.912   0.792   3.898 -0.4113  0.4604 -0.2561
20798SOL    HW163835   5.000   0.754   3.890 -0.2957  0.4646  0.8803
20798SOL    HW263836   4.912   0.864   3.835  0.4346  0.5314 -0.1913
20799SOL     OW63837   2.284   6.490   5.614 -0.2848 -0.4019  0.0723
20799SOL    HW163838   2.269   6.584   5.609 -1.5590 -0.5410  0.7342
20799SOL    HW263839   2.253   6.456   5.530 -0.7300 -0.3213  0.1994
20800SOL     OW63840   0.772   4.177   6.020  0.4915  0.6849  0.5520
20800SOL    HW163841   0.736   4.114   5.957  1.8928  0.2198  0.1595
20800SOL    HW263842   0.734   4.261   5.996  0.3652  0.3660 -0.3842
20801SOL     OW63843   3.393   4.287  11.829 -0.2018  0.3338  0.0346
20801SOL    HW163844   3.357   4.281  11.741  1.0190 -0.1395 -0.4515
20801SOL    HW263845   3.360   4.370  11.863  0.4516  1.2040 -1.3927
20802SOL     OW63846   0.556   4.724   6.122 -0.5330  0.7864 -0.1656
20802SOL    HW163847   0.567   4.744   6.029 -1.2349 -0.8471 -0.6451
20802SOL    HW263848   0.631   4.767   6.164 -0.0968  1.4108 -1.4985
20803SOL     OW63849   2.859   5.093   7.487 -0.1432 -0.7741 -0.0548
20803SOL    HW163850   2.929   5.071   7.426 -0.1325  0.0250 -0.3511
20803SOL    HW263851   2.854   5.189   7.483  0.5712 -0.6055  1.9789
20804SOL     OW63852   0.912   2.054  10.706 -0.0765  0.2687 -0.0277
20804SOL    HW163853   0.845   1.988  10.690  0.7535 -0.3697 -1.0244
20804SOL    HW263854   0.986   2.028  10.651  0.3949  1.8563 -0.2170
20805SOL     OW63855   7.256   6.392   4.017 -0.1428 -0.0322 -0.2073
20805SOL    HW163856   7.278   6.468   3.963  0.1692  0.7460  0.9756
20805SOL    HW263857   7.203   6.337   3.959 -0.7272  1.2717 -0.9794
20806SOL     OW63858   4.020   6.886  10.589  0.0608  0.4760  0.0968
20806SOL    HW163859   4.033   6.921  10.677  2.1247 -0.8324  0.3968
20806SOL    HW263860   4.102   6.906  10.544  0.2860 -1.6021 -0.5105
20807SOL     OW63861   3.896   5.581   8.430 -0.0786  0.4391  0.1707
20807SOL    HW163862   3.842   5.572   8.351  3.2532 -0.0166 -2.2774
20807SOL    HW263863   3.963   5.646   8.406  1.5524 -0.3416  2.2956
20808SOL     OW63864   2.940   5.969   1.382  0.1542  0.1822  0.3132
20808SOL    HW163865   2.968   6.045   1.433 -2.4646  0.9468  0.7209
20808SOL    HW263866   2.892   6.006   1.308 -2.5844 -1.0039  1.3625
20809SOL     OW63867   2.315   5.645   4.009  0.1606 -0.4917 -0.0121
20809SOL    HW163868   2.262   5.615   3.935 -0.6924  0.6288  0.1293
20809SOL    HW263869   2.404   5.616   3.988 -0.3059 -1.4010 -0.7987
20810SOL     OW63870   0.037   3.132   7.200 -0.0459 -0.0575 -0.6908
20810SOL    HW163871  -0.049   3.133   7.158  1.0966  1.0275 -3.2750
20810SOL    HW263872   0.089   3.194   7.147  2.5467 -1.3268  0.2257
20811SOL     OW63873   2.358   1.778   9.997 -0.1744  0.1619 -0.1501
20811SOL    HW163874   2.349   1.693   9.953  0.5853  0.0028 -0.0043
20811SOL    HW263875   2.304   1.837   9.944  0.5357 -0.0727 -1.1702
20812SOL     OW63876   3.105   6.982   4.973  0.2403 -0.2261 -0.3643
20812SOL    HW163877   3.056   6.900   4.968 -1.4879  0.6882  0.4591
20812SOL    HW263878   3.054   7.043   4.919 -0.0366  0.9711  1.1657
20813SOL     OW63879   2.703   0.285  10.910 -0.3767  0.0269 -0.0654
20813SOL    HW163880   2.648   0.218  10.949  0.9448 -1.4676 -0.6656
20813SOL    HW263881   2.720   0.253  10.821 -0.6294  1.7206 -0.7595
20814SOL     OW63882   4.574   5.264   0.581  0.6380 -0.3730 -0.2732
20814SOL    HW163883   4.498   5.209   0.562  1.5558 -1.7030 -0.2476
20814SOL    HW263884   4.586   5.317   0.502 -0.7183  0.3743  0.0015
20815SOL     OW63885   0.062   7.030   3.376  0.4815  0.4830 -0.3855
20815SOL    HW163886  -0.002   7.005   3.443  0.3203 -0.0908 -0.7395
20815SOL    HW263887   0.096   7.114   3.405  2.1015 -0.7963  1.6548
20816SOL     OW63888   2.471   1.429   7.284  0.0397 -0.4283  0.3403
20816SOL    HW163889   2.540   1.471   7.336 -0.1152 -1.5951  1.5446
20816SOL    HW263890   2.442   1.497   7.223  1.3013  0.5065  0.7428
20817SOL     OW63891   7.667   7.958   6.655 -0.2129 -0.3221 -0.2228
20817SOL    HW163892   7.680   7.927   6.744 -0.8695  0.6811  0.2374
20817SOL    HW263893   7.602   8.028   6.663  0.3780  0.3846 -1.3635
20818SOL     OW63894   6.759   7.676   4.187  0.7795  0.1328 -0.3483
20818SOL    HW163895   6.742   7.725   4.106 -2.4541 -1.3180 -0.7205
20818SOL    HW263896   6.750   7.741   4.256  0.0125  0.7520 -1.0047
20819SOL     OW63897   6.600   2.721   2.680 -0.1495  0.1253 -0.2350
20819SOL    HW163898   6.611   2.626   2.689  0.9944  0.2741  0.0440
20819SOL    HW263899   6.688   2.754   2.663 -0.2286  1.3217  1.3961
20820SOL     OW63900   2.830   4.338   7.931 -0.1268 -0.2874 -0.5705
20820SOL    HW163901   2.820   4.253   7.888 -0.2083 -0.5474 -0.0480
20820SOL    HW263902   2.839   4.317   8.024  2.3443  0.1185 -0.6618
20821SOL     OW63903   1.162   4.026   4.619 -0.4421  0.3084  0.4127
20821SOL    HW163904   1.071   4.034   4.592 -0.4400  1.7969  0.7402
20821SOL    HW263905   1.172   3.934   4.644 -1.2593 -0.3894 -1.6408
20822SOL     OW63906   6.788   6.980   5.341  0.2749 -0.3691  0.5057
20822SOL    HW163907   6.732   7.004   5.267  0.0995 -1.1695  0.3760
20822SOL    HW263908   6.731   6.932   5.400  0.6122 -0.4189  0.7932
20823SOL     OW63909   7.435   5.688   9.125 -0.2259 -0.1657 -0.6482
20823SOL    HW163910   7.449   5.606   9.077  1.9039 -0.9664  1.1810
20823SOL    HW263911   7.396   5.661   9.208  2.0301  0.3884  0.6751
20824SOL     OW63912   5.310   3.577   8.086  0.4938 -0.1840  0.3272
20824SOL    HW163913   5.321   3.591   7.992  2.3500 -0.3250  0.4973
20824SOL    HW263914   5.266   3.492   8.093  1.0577 -0.5444 -0.3969
20825SOL     OW63915   4.086   3.172   0.135  0.3104  0.1255 -0.5537
20825SOL    HW163916   4.176   3.142   0.117  0.0398 -0.4995 -0.9038
20825SOL    HW263917   4.059   3.216   0.054  0.3998  0.5556 -0.3487
20826SOL     OW63918   0.630   6.212   9.958  0.3982 -0.4556  0.6712
20826SOL    HW163919   0.576   6.258   9.894 -0.8993 -2.2767  0.3628
20826SOL    HW263920   0.580   6.216  10.039  0.4110 -1.0129  0.7131
20827SOL     OW63921   0.445   6.407   8.916  0.0646 -0.2977 -0.0596
20827SOL    HW163922   0.363   6.365   8.939 -0.4901  0.4560 -0.6305
20827SOL    HW263923   0.513   6.345   8.944 -0.5216  0.5079  3.6865
20828SOL     OW63924   1.772   7.313  10.928 -0.1358  0.0385  0.3503
20828SOL    HW163925   1.690   7.268  10.947 -0.5008  0.0605 -1.0620
20828SOL    HW263926   1.758   7.402  10.959 -0.8717  0.1890 -0.3625
20829SOL     OW63927   1.945   4.635   3.142  0.0212 -0.1799 -0.5758
20829SOL    HW163928   1.932   4.558   3.086  0.4330  0.2476 -1.2901
20829SOL    HW263929   1.979   4.600   3.224 -0.1931 -0.7920 -0.7423
20830SOL     OW63930   3.720   6.154   8.285 -0.0423 -0.5523 -0.1210
20830SOL    HW163931   3.733   6.059   8.287  0.9335 -0.4272  0.7911
20830SOL    HW263932   3.726   6.181   8.377 -1.9379  0.2181 -0.1728
20831SOL     OW63933   7.372   1.082  12.455  0.3270 -0.0793 -0.2044
20831SOL    HW163934   7.391   1.062  12.546  0.1731  0.9201  0.0540
20831SOL    HW263935   7.324   1.005  12.423 -1.2562  0.3238  1.0665
20832SOL     OW63936   5.244   5.276   4.159 -0.0663  0.4956 -0.1358
20832SOL    HW163937   5.201   5.214   4.217  1.5256 -0.3344  0.2017
20832SOL    HW263938   5.323   5.232   4.130  1.0246  2.2762 -0.0573
20833SOL     OW63939   1.588   2.980   0.849 -0.1697  0.2522  0.3266
20833SOL    HW163940   1.527   3.050   0.828 -1.3119  0.1439  2.9063
20833SOL    HW263941   1.648   3.019   0.912  0.7061 -0.4349 -0.0585
20834SOL     OW63942   1.164   1.057   0.592 -0.2579  0.0859 -0.6481
20834SOL    HW163943   1.204   1.135   0.631 -0.6530 -0.1086  0.1429
20834SOL    HW263944   1.225   0.986   0.613 -1.6037 -0.4720  1.7388
20835SOL     OW63945   1.531   1.284  10.875 -0.4020 -0.0354  0.2792
20835SOL    HW163946   1.616   1.323  10.895 -0.4422  0.0738  0.2378
20835SOL    HW263947   1.536   1.261  10.782  0.0521 -1.2131  0.5726
20836SOL     OW63948   0.251   4.458   8.882 -0.3161 -0.1065  0.5579
20836SOL    HW163949   0.213   4.400   8.816 -1.2186  2.4293 -1.2686
20836SOL    HW263950   0.324   4.407   8.918 -1.5171 -2.6541 -0.3360
20837SOL     OW63951   5.434   5.521  10.835  0.8185 -0.2539 -0.0989
20837SOL    HW163952   5.341   5.532  10.856  0.9532 -0.0953  0.4093
20837SOL    HW263953   5.434   5.458  10.763  0.2952  0.0195 -0.3460
20838SOL     OW63954   7.532   4.624  10.517 -0.8604 -0.2416 -0.0156
20838SOL    HW163955   7.568   4.539  10.491  2.1927  0.6025  1.0505
20838SOL    HW263956   7.575   4.687  10.460 -1.2200  0.8035  0.8474
20839SOL     OW63957   6.946   0.463   3.920 -0.0235 -0.5823  0.4784
20839SOL    HW163958   6.947   0.454   4.016  1.3100 -1.3722  0.4190
20839SOL    HW263959   6.866   0.417   3.893 -0.9569  0.5045  1.2495
20840SOL     OW63960   6.550   5.536  11.224 -0.2952  0.8376  0.4647
20840SOL    HW163961   6.480   5.600  11.210 -0.5806  0.2741 -0.7634
20840SOL    HW263962   6.549   5.481  11.146  1.4948  0.7761  0.4456
20841SOL     OW63963   7.673   4.813  11.015  0.3209  0.0435 -0.1381
20841SOL    HW163964   7.589   4.834  10.976 -0.7236 -1.9651  0.8563
20841SOL    HW263965   7.693   4.724  10.984  1.3891 -0.0452  0.7238
20842SOL     OW63966   7.006   6.289   6.504  0.6081 -0.0578 -0.0862
20842SOL    HW163967   6.922   6.333   6.495 -1.0149 -3.2803 -2.4024
20842SOL    HW263968   7.023   6.288   6.599 -1.8383  0.8473  0.4302
20843SOL     OW63969   4.966   2.850   7.795  0.2965 -0.5684 -0.1044
20843SOL    HW163970   5.006   2.828   7.711  0.9949  2.3818 -0.6525
20843SOL    HW263971   4.876   2.872   7.775  0.7738  1.3374 -0.3693
20844SOL     OW63972   0.135   1.369   1.466  0.2814  0.2493 -0.1399
20844SOL    HW163973   0.099   1.283   1.444  1.4297 -0.0759 -0.8227
20844SOL    HW263974   0.096   1.427   1.401 -0.9514  0.3754  0.6788
20845SOL     OW63975   5.343   2.572   6.919  0.1542 -0.0632 -0.5661
20845SOL    HW163976   5.294   2.563   7.000 -1.5203  0.2716 -1.4907
20845SOL    HW263977   5.299   2.513   6.858  0.6997  0.4939 -1.5206
20846SOL     OW63978   0.988   6.438   7.236  0.3514  0.2296  0.3598
20846SOL    HW163979   0.995   6.525   7.277  0.4488  0.1201  0.5741
20846SOL    HW263980   0.897   6.412   7.252  0.5128 -0.0042  0.8865
20847SOL     OW63981   0.022   3.617   0.797  0.8121 -0.2523  0.8406
20847SOL    HW163982   0.025   3.689   0.734 -1.3659  0.6857  1.6898
20847SOL    HW263983  -0.071   3.612   0.822  0.5773 -4.2174 -0.1396
20848SOL     OW63984   1.016   1.151   4.557 -0.2119  0.2531 -0.0122
20848SOL    HW163985   0.958   1.211   4.606  0.3658  0.6626  0.1760
20848SOL    HW263986   1.099   1.153   4.605 -0.1007 -0.5047 -0.1539
20849SOL     OW63987   2.197   2.848  10.034 -0.0593  0.1493  0.3061
20849SOL    HW163988   2.182   2.828  10.126 -2.0696  1.0221  0.2270
20849SOL    HW263989   2.125   2.804   9.988  0.9799 -0.3867 -0.8846
20850SOL     OW63990   3.858   7.189   9.078 -0.3570  0.5786 -0.1774
20850SOL    HW163991   3.874   7.225   8.990  0.9654  0.2722 -0.0811
20850SOL    HW263992   3.937   7.211   9.127 -1.5868  1.8462  1.3271
20851SOL     OW63993   0.708   6.181   1.550 -0.1372  0.2982  0.4612
20851SOL    HW163994   0.654   6.256   1.523  1.0438  1.5634  1.5211
20851SOL    HW263995   0.796   6.202   1.517  0.7796  0.6606  2.9671
20852SOL     OW63996   1.788   6.862   9.575 -0.2583 -0.3812  0.6870
20852SOL    HW163997   1.738   6.934   9.538  1.6533  1.7265  1.9627
20852SOL    HW263998   1.733   6.828   9.646 -2.2547 -1.9456 -1.4612
20853SOL     OW63999   1.824   4.130   6.966  0.0603  0.4634  0.1764
20853SOL    HW164000   1.909   4.093   6.989  1.0496  1.8326 -1.0545
20853SOL    HW264001   1.796   4.081   6.889 -0.5203 -0.3256  0.8823
20854SOL     OW64002   1.884   6.735   7.283  0.7757  0.1489  0.1221
20854SOL    HW164003   1.865   6.641   7.282 -0.0667  0.3011 -1.0541
20854SOL    HW264004   1.928   6.750   7.367 -0.6938 -0.9804  1.1476
20855SOL     OW64005   0.625   0.948   7.758  0.1285 -0.1749  0.4887
20855SOL    HW164006   0.667   0.877   7.710  0.0822  1.8872 -2.9432
20855SOL    HW264007   0.692   1.015   7.766 -0.6568  0.5821  0.9448
20856SOL     OW64008   7.959   7.199   5.380 -0.4817  0.5912 -0.2988
20856SOL    HW164009   7.999   7.119   5.345 -0.5746  0.0996  0.6880
20856SOL    HW264010   7.924   7.244   5.303  0.3533  0.1237 -0.9678
20857SOL     OW64011   4.552   2.119   5.194 -0.0187 -0.1661 -0.0037
20857SOL    HW164012   4.494   2.145   5.266  1.1024 -0.0520  0.8778
20857SOL    HW264013   4.631   2.170   5.207  0.2519 -0.2530 -1.2550
20858SOL     OW64014   1.966   1.957   8.932  0.1283 -0.4807  0.4737
20858SOL    HW164015   1.955   2.041   8.888  1.3966 -0.8049 -0.5116
20858SOL    HW264016   1.877   1.926   8.946 -0.3346  0.4010 -0.3824
20859SOL     OW64017   3.216   1.950   5.696  0.0858 -0.1794  0.3557
20859SOL    HW164018   3.190   1.880   5.636 -0.7974  0.9112 -0.5808
20859SOL    HW264019   3.277   2.004   5.646  1.2563 -0.5855  1.2783
20860SOL     OW64020   4.771   4.580   9.250  0.2872  0.6793  0.3749
20860SOL    HW164021   4.760   4.489   9.223 -0.2639  0.5939  0.8669
20860SOL    HW264022   4.688   4.622   9.227  0.2377  0.8642  0.8698
20861SOL     OW64023   6.042   1.998   7.275 -0.4205 -0.2183  1.0556
20861SOL    HW164024   6.118   1.986   7.333 -0.2480 -2.1609  0.5296
20861SOL    HW264025   6.077   1.981   7.187 -1.0178  1.1021  0.5425
20862SOL     OW64026   7.057   0.208  10.610 -0.2738  0.3222 -0.0141
20862SOL    HW164027   7.003   0.233  10.535 -1.6976  2.2545  1.5543
20862SOL    HW264028   7.147   0.229  10.584 -0.4234 -1.1392 -1.9466
20863SOL     OW64029   2.021   2.603   3.998 -0.0684 -0.3114  0.8683
20863SOL    HW164030   1.998   2.576   3.909  0.2759 -0.5343  0.8425
20863SOL    HW264031   1.937   2.604   4.045 -0.5218  1.5982  0.0982
20864SOL     OW64032   5.926   6.875   2.396 -0.0642 -0.5385 -0.0972
20864SOL    HW164033   5.955   6.964   2.415 -0.2775 -0.3861 -0.4733
20864SOL    HW264034   5.986   6.845   2.327  2.1340 -1.8727  2.1993
20865SOL     OW64035   2.870   6.871   9.285 -0.5898  0.0452  0.2968
20865SOL    HW164036   2.795   6.845   9.339 -0.5209  0.0989  0.4181
20865SOL    HW264037   2.895   6.790   9.240 -0.5929 -0.0197  0.4108
20866SOL     OW64038   7.318   5.637   0.387  0.8224  0.4748 -0.1667
20866SOL    HW164039   7.243   5.584   0.362  3.4293 -3.8423  0.2000
20866SOL    HW264040   7.283   5.699   0.451 -2.5623 -0.5983 -0.7982
20867SOL     OW64041   1.711   1.141   1.388  0.2587 -0.3667  0.6476
20867SOL    HW164042   1.789   1.192   1.410  0.3681  0.9365 -2.3269
20867SOL    HW264043   1.722   1.118   1.296 -3.0626  0.3106 -0.0320
20868SOL     OW64044   2.033   7.690   3.971 -0.2146  0.0534  0.0311
20868SOL    HW164045   2.012   7.608   4.016  0.7576  0.1438  0.6993
20868SOL    HW264046   2.020   7.671   3.879 -2.8933  0.0406  0.3402
20869SOL     OW64047   1.294   7.254   4.624  0.1787  0.1371  0.1460
20869SOL    HW164048   1.385   7.284   4.622  0.6097 -1.0983 -0.2539
20869SOL    HW264049   1.301   7.159   4.614 -1.1530  0.0061  0.3306
20870SOL     OW64050   2.194   6.042   6.071  0.2022 -0.3738 -0.0339
20870SOL    HW164051   2.238   5.958   6.088 -0.3219 -0.3834  1.3735
20870SOL    HW264052   2.237   6.104   6.129  0.3673  0.2894 -0.8405
20871SOL     OW64053   2.686   2.983  10.719 -0.3439  0.5373  0.4882
20871SOL    HW164054   2.760   2.936  10.756  0.4449  1.0639 -0.3833
20871SOL    HW264055   2.711   3.075  10.723 -0.9421  0.7213  0.1618
20872SOL     OW64056   5.059   7.342   3.603  0.0299  0.3503  0.3988
20872SOL    HW164057   5.019   7.377   3.683 -1.6732  0.3271 -0.3962
20872SOL    HW264058   5.020   7.256   3.592  0.4819  0.2271 -0.3011
20873SOL     OW64059   3.082   2.199   4.163  0.2019  0.2244  0.1892
20873SOL    HW164060   3.005   2.156   4.125 -1.2928 -0.6000  3.7156
20873SOL    HW264061   3.156   2.148   4.130 -0.9427 -0.6369 -1.1999
20874SOL     OW64062   5.270   5.271   7.241  0.8539 -0.3547  0.5383
20874SOL    HW164063   5.248   5.335   7.308  1.0804  0.1662  0.1172
20874SOL    HW264064   5.209   5.288   7.170 -0.6064 -2.0889  1.3068
20875SOL     OW64065   2.194   7.949   5.650 -0.2263 -0.3347  0.2538
20875SOL    HW164066   2.187   8.034   5.607  0.5822 -0.0422  0.6844
20875SOL    HW264067   2.255   7.899   5.596  1.1956  0.2109  1.2933
20876SOL     OW64068   2.749   3.690   0.039  0.0347  0.1568 -0.0249
20876SOL    HW164069   2.799   3.758  -0.007 -1.5329  0.1569 -1.8787
20876SOL    HW264070   2.770   3.609  -0.008 -1.1833  0.0677 -0.4736
20877SOL     OW64071   5.735   3.254   0.903  0.5748  0.1056  0.1778
20877SOL    HW164072   5.757   3.292   0.988 -1.0279  0.5271  0.4377
20877SOL    HW264073   5.661   3.197   0.920  2.3768 -2.5548 -0.3677
20878SOL     OW64074   3.822   4.425   6.708  0.3148 -0.2307  0.0542
20878SOL    HW164075   3.856   4.494   6.651  1.3117  1.0771  2.1040
20878SOL    HW264076   3.752   4.468   6.757 -2.0346 -1.9257 -1.6047
20879SOL     OW64077   3.076   2.865  11.689  0.3074  0.3266  0.3727
20879SOL    HW164078   3.166   2.888  11.709  0.5782 -1.2918  1.2962
20879SOL    HW264079   3.068   2.874  11.595  1.2124  1.2201  0.3739
20880SOL     OW64080   4.067   0.293   8.419  0.1583 -0.5251  0.1670
20880SOL    HW164081   4.023   0.249   8.492  3.0637 -0.1326  2.3455
20880SOL    HW264082   4.130   0.228   8.386  1.1049  0.3557  0.1832
20881SOL     OW64083   7.609   5.832  11.091  0.2158 -0.4196 -0.5743
20881SOL    HW164084   7.698   5.837  11.124  0.5430  1.6280 -1.5882
20881SOL    HW264085   7.578   5.923  11.089 -1.0252 -0.8038 -2.4209
20882SOL     OW64086   2.302   0.771   8.818  0.2255 -0.2594  0.2831
20882SOL    HW164087   2.266   0.821   8.745  0.6280 -0.2020  0.1213
20882SOL    HW264088   2.244   0.695   8.826 -0.1144 -0.0075  0.2292
20883SOL     OW64089   3.933   6.255   1.295  0.1203  0.3915 -0.0260
20883SOL    HW164090   3.973   6.196   1.359  0.0164  0.6355  0.2666
20883SOL    HW264091   3.887   6.320   1.348 -1.9778 -0.7434 -0.3554
20884SOL     OW64092   4.432   3.789   2.270  0.0927  0.4522  0.5752
20884SOL    HW164093   4.441   3.834   2.187 -0.7820 -0.3617  0.0192
20884SOL    HW264094   4.435   3.696   2.248 -0.8542  0.2138  1.3511
20885SOL     OW64095   0.954   5.740   6.549 -0.4815  0.4973 -0.3035
20885SOL    HW164096   0.970   5.765   6.458  1.8110  0.2880 -0.0046
20885SOL    HW264097   0.993   5.811   6.600 -0.6776  0.0173  0.5184
20886SOL     OW64098   2.070   4.588   8.035  0.1951 -0.3653 -0.2330
20886SOL    HW164099   1.987   4.562   8.075 -0.0792 -1.8660 -1.6843
20886SOL    HW264100   2.082   4.527   7.962  1.6449  1.0116 -1.2105
20887SOL     OW64101   1.467   2.030   2.924  0.3486  0.1310 -0.5659
20887SOL    HW164102   1.547   1.980   2.941 -0.1195 -0.7706 -0.9717
20887SOL    HW264103   1.438   2.002   2.838  1.1222  2.5605 -1.6973
20888SOL     OW64104   4.062   5.295   2.043  0.1817 -0.0828  0.1572
20888SOL    HW164105   3.972   5.268   2.060  0.3343 -0.9795 -0.4186
20888SOL    HW264106   4.069   5.297   1.947  0.0806  2.3764  0.1146
20889SOL     OW64107   7.679   7.014  11.649  0.5383  0.2217 -0.0183
20889SOL    HW164108   7.625   6.957  11.703  1.8438 -1.9802 -0.9047
20889SOL    HW264109   7.616   7.064  11.596 -0.6516 -0.3167  0.8603
20890SOL     OW64110   0.916   6.239  11.823  0.4257 -0.2370 -0.5392
20890SOL    HW164111   0.976   6.237  11.749  0.6566  0.3573 -0.3725
20890SOL    HW264112   0.840   6.188  11.794  0.6557 -0.2854 -1.0587
20891SOL     OW64113   7.280   6.217   2.509 -0.1671  0.0946  0.0312
20891SOL    HW164114   7.262   6.300   2.464  1.1424  0.4755  0.1631
20891SOL    HW264115   7.373   6.202   2.495  0.1104 -0.2149  1.8735
20892SOL     OW64116   7.485   2.518  10.673  0.1402  0.3769  0.4224
20892SOL    HW164117   7.547   2.510  10.601  0.0679  0.2943  0.3681
20892SOL    HW264118   7.467   2.428  10.700  0.1686  0.4079  0.5448
20893SOL     OW64119   1.371   5.763   2.782 -0.0286 -0.2599 -0.0385
20893SOL    HW164120   1.318   5.772   2.861  0.6620 -2.3780  0.7212
20893SOL    HW264121   1.311   5.786   2.711 -1.0915  0.2408  0.9843
20894SOL     OW64122   1.768   6.767   9.272  0.6107 -0.5389  0.3738
20894SOL    HW164123   1.736   6.692   9.322  0.9698 -0.2950  0.9797
20894SOL    HW264124   1.719   6.842   9.306 -0.7803 -0.6767 -1.2071
20895SOL     OW64125   0.461   5.110   6.578  0.0759 -0.9213 -0.3077
20895SOL    HW164126   0.380   5.160   6.574 -0.7019 -2.1517 -0.1551
20895SOL    HW264127   0.441   5.036   6.634  1.5311 -0.8502  0.3438
20896SOL     OW64128   6.178   3.143   8.972  0.5147 -0.2036 -0.1917
20896SOL    HW164129   6.226   3.098   8.903  1.4033  1.9008 -1.0295
20896SOL    HW264130   6.245   3.169   9.035  0.2371  0.9837 -0.3523
20897SOL     OW64131   7.578   7.397   4.557  0.4644  0.3534 -0.1376
20897SOL    HW164132   7.501   7.341   4.568  1.4140 -1.2401 -1.2362
20897SOL    HW264133   7.545   7.486   4.571 -1.6228 -0.2584 -0.7703
20898SOL     OW64134   1.071   6.066   2.723  0.0784  0.0004 -0.3333
20898SOL    HW164135   1.146   6.052   2.781 -0.2901  0.5150  0.2953
20898SOL    HW264136   1.033   6.149   2.753  0.5316  0.8672 -2.0578
20899SOL     OW64137   1.237   5.325   6.557 -0.0855 -0.2596  0.0942
20899SOL    HW164138   1.221   5.316   6.463  0.7702 -1.0865  0.0233
20899SOL    HW264139   1.182   5.258   6.597 -2.7828  1.9711  0.4593
20900SOL     OW64140   6.638   6.844   0.461  0.2813 -0.0893  0.1470
20900SOL    HW164141   6.702   6.825   0.530 -1.6330  0.6117  2.2481
20900SOL    HW264142   6.632   6.940   0.459  0.3380 -0.0913 -1.0667
20901SOL     OW64143   7.306   4.291   8.300 -0.1784  0.0879  0.6084
20901SOL    HW164144   7.341   4.332   8.379  0.5522  2.4213 -0.8290
20901SOL    HW264145   7.375   4.232   8.271 -0.0190  0.0197  1.1087
20902SOL     OW64146   0.518   7.005   4.508  0.5699 -0.1170 -0.2082
20902SOL    HW164147   0.503   7.057   4.587 -0.5276 -1.7006  0.6769
20902SOL    HW264148   0.611   7.017   4.489  0.9837 -0.0454  1.6070
20903SOL     OW64149   0.101   5.119   3.299  0.0159  0.3535  0.4703
20903SOL    HW164150   0.016   5.083   3.327  0.2239  0.5496  1.3777
20903SOL    HW264151   0.166   5.064   3.343  0.3492  0.8667  0.6172
20904SOL     OW64152   3.538   2.485   5.633  0.4163 -0.5482 -0.4892
20904SOL    HW164153   3.570   2.444   5.713 -2.5590  0.0643  1.1645
20904SOL    HW264154   3.596   2.561   5.620  0.9797 -0.6925  1.0329
20905SOL     OW64155   1.948   3.036   6.376  0.7741  0.4232 -0.5321
20905SOL    HW164156   1.873   3.020   6.319  1.5907  1.0691 -1.8308
20905SOL    HW264157   2.018   3.062   6.317  2.2469 -0.8471  0.5728
20906SOL     OW64158   0.204   3.177  10.368 -0.1821  0.0029 -0.2832
20906SOL    HW164159   0.233   3.259  10.329  0.0304 -0.0006 -0.1346
20906SOL    HW264160   0.114   3.194  10.396  0.1811  0.4805  0.6106
20907SOL     OW64161   1.780   3.124  12.351 -0.4105 -0.3808  0.1247
20907SOL    HW164162   1.786   3.139  12.445 -1.3257  1.3220 -0.0607
20907SOL    HW264163   1.686   3.130  12.332 -0.1839 -0.2154 -0.9806
20908SOL     OW64164   3.882   3.120  12.267 -0.2877  0.1033 -0.2449
20908SOL    HW164165   3.808   3.077  12.224  0.3489 -0.2250 -1.0438
20908SOL    HW264166   3.846   3.202  12.300 -1.1489 -0.3334 -0.0697
20909SOL     OW64167   2.676   1.420   6.290  0.2082  0.2526 -0.4651
20909SOL    HW164168   2.621   1.413   6.211  0.6961 -0.2096 -0.7694
20909SOL    HW264169   2.704   1.511   6.291  1.2076 -0.0234 -1.5250
20910SOL     OW64170   5.878   2.615   5.060 -0.5010  0.0815  0.2661
20910SOL    HW164171   5.906   2.705   5.043  0.7611 -0.3143  0.1065
20910SOL    HW264172   5.960   2.566   5.069 -1.1617 -1.1389 -0.1282
20911SOL     OW64173   2.612   5.488   0.343 -0.0273  0.1148  0.7012
20911SOL    HW164174   2.705   5.488   0.320 -0.1936  0.2495  0.0071
20911SOL    HW264175   2.570   5.439   0.273 -0.6738  1.3685  0.1750
20912SOL     OW64176   1.250   1.454  10.778 -0.7623 -0.3109  0.0664
20912SOL    HW164177   1.279   1.363  10.790  1.8254  0.3889 -0.1877
20912SOL    HW264178   1.252   1.491  10.866 -1.5450 -0.4254  0.1330
20913SOL     OW64179   4.045   1.144   6.647 -0.3522  0.1822  0.3590
20913SOL    HW164180   4.071   1.124   6.557  1.2100  1.4056  0.4943
20913SOL    HW264181   3.949   1.138   6.646 -0.2292 -2.9652 -0.5585
20914SOL     OW64182   3.760   5.423   3.321  0.1638  0.2873 -0.3831
20914SOL    HW164183   3.668   5.445   3.312 -0.7638 -3.1202 -0.7083
20914SOL    HW264184   3.774   5.415   3.415 -0.0715  0.0873 -0.3653
20915SOL     OW64185   7.462   5.563   1.654  0.5961 -0.2832 -0.2774
20915SOL    HW164186   7.424   5.645   1.683  1.2073  0.0049 -0.2676
20915SOL    HW264187   7.500   5.525   1.734 -1.6303 -1.6815  0.1907
20916SOL     OW64188   4.542   7.297   6.707 -0.4625  0.5638 -0.3740
20916SOL    HW164189   4.563   7.207   6.682  0.0719  0.7631 -0.6572
20916SOL    HW264190   4.488   7.288   6.786  0.8945  0.0218  0.5349
20917SOL     OW64191   3.402   4.298   3.639 -0.2787 -0.0225  0.5797
20917SOL    HW164192   3.465   4.336   3.578 -2.7584  1.8055 -1.0550
20917SOL    HW264193   3.421   4.204   3.638  3.0002  0.5149  1.0208
20918SOL     OW64194   4.701   0.543  11.384  0.7062  0.1515  0.1303
20918SOL    HW164195   4.752   0.601  11.442 -1.4716  1.2182  1.0888
20918SOL    HW264196   4.612   0.546  11.419  0.0362 -2.0072 -1.2080
20919SOL     OW64197   0.898   6.120   6.189  0.3769 -1.0381 -0.2285
20919SOL    HW164198   0.823   6.173   6.164  0.1197  0.3392  2.9435
20919SOL    HW264199   0.954   6.119   6.112 -0.2588  2.7928 -0.9255
20920SOL     OW64200   3.000   2.247   0.582 -0.5158 -0.2503 -0.0669
20920SOL    HW164201   2.906   2.262   0.582 -0.5371 -0.1192  2.3575
20920SOL    HW264202   3.023   2.230   0.673  1.9610  0.6974 -0.4165
20921SOL     OW64203   0.509   5.821   2.286  0.2745 -0.3198 -0.0699
20921SOL    HW164204   0.599   5.808   2.256  0.1499  0.1578 -0.6727
20921SOL    HW264205   0.511   5.905   2.332  0.4231 -0.9585  1.1393
20922SOL     OW64206   7.107   7.590   7.727 -0.3058 -0.1914 -0.2847
20922SOL    HW164207   7.088   7.507   7.769 -1.8064  1.1124  1.8226
20922SOL    HW264208   7.164   7.636   7.788 -1.2607  1.1495 -0.3398
20923SOL     OW64209   7.176   3.857   1.529  0.5035 -0.1379  0.2855
20923SOL    HW164210   7.134   3.829   1.447 -0.5592  1.3094  0.2953
20923SOL    HW264211   7.125   3.813   1.598 -0.7484  1.2169  0.2747
20924SOL     OW64212   6.395   7.796   3.003 -0.3152 -0.1080 -0.0003
20924SOL    HW164213   6.428   7.742   2.931 -0.2376  0.3430 -0.3047
20924SOL    HW264214   6.318   7.840   2.968 -3.2807 -3.4790  1.5882
20925SOL     OW64215   1.551   7.104   1.234 -0.2944 -0.9699 -0.3206
20925SOL    HW164216   1.560   7.009   1.238  1.1148 -0.9121 -1.2458
20925SOL    HW264217   1.596   7.129   1.153 -0.6002  0.4849 -0.0735
20926SOL     OW64218   6.855   3.876   8.749  0.1941  0.0806 -0.2009
20926SOL    HW164219   6.940   3.867   8.792  0.7141  1.7550 -0.8027
20926SOL    HW264220   6.875   3.909   8.661 -1.1223  1.6189  0.0272
20927SOL     OW64221   4.545   1.609   6.911 -0.0005  0.1113  0.3343
20927SOL    HW164222   4.477   1.551   6.877 -1.3432  2.2344 -0.8219
20927SOL    HW264223   4.518   1.626   7.002  0.1702 -0.7105  0.5457
20928SOL     OW64224   2.271   0.281   7.101  0.3085  0.2165 -0.1797
20928SOL    HW164225   2.325   0.358   7.079 -1.4421  1.0157 -2.0187
20928SOL    HW264226   2.189   0.318   7.134 -0.4507 -0.8770 -0.7969
20929SOL     OW64227   6.211   7.871   5.898 -0.4499  0.0465  0.1165
20929SOL    HW164228   6.257   7.915   5.827 -1.6768 -0.0167 -0.7436
20929SOL    HW264229   6.276   7.863   5.968  0.9555 -0.4071 -1.1949
20930SOL     OW64230   0.235   3.212   9.071  0.4045 -0.0452 -0.0748
20930SOL    HW164231   0.178   3.138   9.090  1.1796 -0.8580 -0.8296
20930SOL    HW264232   0.227   3.225   8.977  2.3498 -0.9542 -0.4153
20931SOL     OW64233   3.185   3.683   1.431 -0.2423 -0.1669  0.0733
20931SOL    HW164234   3.092   3.662   1.438 -0.1013 -0.6944  0.4383
20931SOL    HW264235   3.194   3.720   1.343 -1.0633  1.3411  0.5841
20932SOL     OW64236   2.392   3.966  11.494 -0.3187 -0.1887  0.8078
20932SOL    HW164237   2.446   4.025  11.546 -2.6246  1.8810  1.0667
20932SOL    HW264238   2.318   3.945  11.551 -1.8045  0.3520 -0.8310
20933SOL     OW64239   5.893   1.825   2.642 -0.5034  0.4597 -0.3302
20933SOL    HW164240   5.812   1.824   2.694  0.7121 -1.3414  1.6961
20933SOL    HW264241   5.924   1.734   2.645  1.2301  0.9656 -1.6846
20934SOL     OW64242   5.318   3.867  12.055 -0.1888  0.4101  0.5556
20934SOL    HW164243   5.318   3.910  12.141 -0.3647  0.7319  0.3990
20934SOL    HW264244   5.343   3.777  12.073  3.5017  1.2828  0.5231
20935SOL     OW64245   0.161   5.475   1.467 -0.0507  0.3175  0.3493
20935SOL    HW164246   0.241   5.498   1.514  0.4434  2.1909 -1.2917
20935SOL    HW264247   0.190   5.426   1.391 -0.6021 -0.1793  0.4493
20936SOL     OW64248   4.904   7.359  10.600 -0.1776 -0.6528 -0.1910
20936SOL    HW164249   4.905   7.315  10.685  0.6150 -2.4544 -1.0827
20936SOL    HW264250   4.882   7.290  10.537 -0.5500  0.5903 -1.4894
20937SOL     OW64251   4.864   0.175   8.496 -0.2324 -0.2398  0.3785
20937SOL    HW164252   4.937   0.197   8.553 -0.0272  2.1432 -0.6916
20937SOL    HW264253   4.896   0.103   8.442  1.2691  0.6307  0.0630
20938SOL     OW64254   4.685   7.019   6.758  0.1637  0.3025  0.4395
20938SOL    HW164255   4.767   6.990   6.798  0.0828 -0.6195 -0.0263
20938SOL    HW264256   4.622   6.950   6.779 -0.0952  0.2234 -0.5338
20939SOL     OW64257   0.022   7.760  10.070  0.0727 -0.6766 -0.6358
20939SOL    HW164258   0.089   7.789  10.008 -1.2381 -0.6182 -2.0969
20939SOL    HW264259  -0.059   7.798  10.037 -0.7858 -1.2011  0.7720
20940SOL     OW64260   6.355   6.319   7.133  0.2910 -0.2308 -0.0680
20940SOL    HW164261   6.348   6.377   7.209 -0.8761  0.7991 -0.9061
20940SOL    HW264262   6.354   6.231   7.169 -0.4890  0.2365  1.1135
20941SOL     OW64263   0.230   3.179   8.785  0.8817 -0.3737  0.5734
20941SOL    HW164264   0.297   3.175   8.717  0.2086  2.4923 -0.3611
20941SOL    HW264265   0.148   3.159   8.740  0.4440  1.4550  0.4756
20942SOL     OW64266   4.809   2.061   2.967 -0.9506  0.2845  0.3184
20942SOL    HW164267   4.890   2.063   3.017  0.1556 -1.5490 -1.2390
20942SOL    HW264268   4.812   2.139   2.913  0.2397 -0.1838 -0.3321
20943SOL     OW64269   7.038   3.619   5.189 -0.2260  0.3161 -0.5149
20943SOL    HW164270   6.980   3.544   5.206  1.5836 -0.6794  1.8590
20943SOL    HW264271   7.001   3.690   5.240 -0.2222  0.1146 -0.2278
20944SOL     OW64272   6.193   4.690   2.963  0.5134 -0.4136  0.1936
20944SOL    HW164273   6.266   4.664   2.906  1.0065  0.1682  0.5370
20944SOL    HW264274   6.177   4.613   3.018  0.2828 -0.8487 -0.4725
20945SOL     OW64275   5.772   6.728   4.386  0.2804 -0.0030 -0.1098
20945SOL    HW164276   5.693   6.713   4.438 -0.3124  2.4078 -0.1899
20945SOL    HW264277   5.813   6.642   4.379 -2.7380 -1.4951 -0.7477
20946SOL     OW64278   1.405   5.053   5.116 -0.1873 -0.4207 -0.2191
20946SOL    HW164279   1.424   4.966   5.082 -2.4595 -1.5083  1.0739
20946SOL    HW264280   1.346   5.092   5.051  1.7200  0.6890 -1.3791
20947SOL     OW64281   1.658   5.244   0.565 -0.0664 -0.4054 -0.5516
20947SOL    HW164282   1.749   5.220   0.549  0.9995  0.6704  3.0835
20947SOL    HW264283   1.658   5.339   0.574 -1.6673 -0.3336 -0.9127
20948SOL     OW64284   1.993   1.838   7.504  0.1492  0.1492 -0.3651
20948SOL    HW164285   2.071   1.860   7.452 -0.2165  3.3458  0.2208
20948SOL    HW264286   1.996   1.900   7.577 -2.1335 -0.7016  0.5116
20949SOL     OW64287   1.733   7.574   1.453  0.1024 -0.2338 -0.1350
20949SOL    HW164288   1.818   7.534   1.473  1.1656  1.3001 -1.3942
20949SOL    HW264289   1.696   7.520   1.383  1.0725  0.3672 -1.1318
20950SOL     OW64290   7.328   6.732  10.187  0.1409  0.3251  0.1020
20950SOL    HW164291   7.263   6.761  10.250 -0.3073  0.7396 -0.5413
20950SOL    HW264292   7.369   6.655  10.228 -1.1115 -0.2625  0.2935
20951SOL     OW64293   7.375   0.987   0.607 -0.1293 -0.8541 -0.1388
20951SOL    HW164294   7.461   1.024   0.588 -0.3443 -1.0679 -1.6350
20951SOL    HW264295   7.392   0.895   0.626  0.1243 -0.5705  1.0722
20952SOL     OW64296   2.380   7.189   9.961  0.2762  0.3221 -0.0207
20952SOL    HW164297   2.345   7.128   9.896  1.4331  0.9713 -1.3149
20952SOL    HW264298   2.473   7.195   9.940  0.2208  2.4221  0.1333
20953SOL     OW64299   6.044   5.487   7.919 -0.5421  0.0625  0.4343
20953SOL    HW164300   5.998   5.406   7.894 -1.8364  0.6563  0.7838
20953SOL    HW264301   5.995   5.519   7.995 -0.0601  1.1886  0.2820
20954SOL     OW64302   6.189   6.127   5.610 -0.3812  0.2694  0.0060
20954SOL    HW164303   6.187   6.041   5.568  1.9601 -0.7078  1.6375
20954SOL    HW264304   6.175   6.108   5.703  0.9252  1.5122  0.5009
20955SOL     OW64305   7.471   6.519   9.058 -0.2754  0.1720 -0.7332
20955SOL    HW164306   7.410   6.590   9.039 -1.4225 -0.4105  0.6272
20955SOL    HW264307   7.418   6.440   9.056  0.7514 -0.5268 -1.0436
20956SOL     OW64308   4.406   6.782   8.074  0.0504  0.1272  0.1839
20956SOL    HW164309   4.445   6.741   8.151  2.2054  1.8546  0.1180
20956SOL    HW264310   4.339   6.840   8.109 -0.6087 -0.8458  0.5504
20957SOL     OW64311   4.310   4.067  12.066  0.3436 -0.2988 -0.0265
20957SOL    HW164312   4.313   3.981  12.107  0.5019  0.3932  1.4918
20957SOL    HW264313   4.315   4.050  11.972 -2.0615 -2.0700  0.1040
20958SOL     OW64314   2.278   7.016   9.288 -0.3146 -0.3333 -0.3435
20958SOL    HW164315   2.286   7.110   9.275 -1.6336 -0.3803 -1.6897
20958SOL    HW264316   2.184   6.999   9.288 -0.2226 -1.3472  2.4925
20959SOL     OW64317   6.378   4.911   3.903  0.4810 -0.3429 -0.1797
20959SOL    HW164318   6.409   4.843   3.963  1.2217  0.1998  0.0690
20959SOL    HW264319   6.318   4.865   3.843 -1.6521 -0.5714  1.9974
20960SOL     OW64320   2.415   2.976   3.209  0.0657  0.3053 -0.1102
20960SOL    HW164321   2.475   3.050   3.201  1.4093 -0.8364 -1.1708
20960SOL    HW264322   2.466   2.900   3.180 -1.2369 -1.0663  0.9789
20961SOL     OW64323   4.647   6.968   9.084 -0.2684  0.3572  0.3814
20961SOL    HW164324   4.662   7.037   9.020  0.2649  0.3962  0.5426
20961SOL    HW264325   4.733   6.953   9.124 -0.2961 -0.6247  0.1120
20962SOL     OW64326   5.014   7.775   8.221  0.4020 -0.4927 -0.2689
20962SOL    HW164327   4.946   7.729   8.171  0.3595 -2.2765  1.3293
20962SOL    HW264328   5.096   7.748   8.180  0.5214 -3.6286  1.7132
20963SOL     OW64329   2.559   4.194   2.075  0.0349  0.1478 -0.1801
20963SOL    HW164330   2.610   4.223   1.999  0.6761  0.7452  0.4638
20963SOL    HW264331   2.503   4.124   2.041 -1.0353  1.6161 -1.6475
20964SOL     OW64332   3.282   6.123   6.179  0.1240  0.0350  0.1850
20964SOL    HW164333   3.218   6.087   6.241 -0.6905  1.5806  0.2870
20964SOL    HW264334   3.366   6.093   6.213 -0.3570  0.1782  1.6051
20965SOL     OW64335   7.368   2.500   7.350  0.1919 -0.5613  0.0941
20965SOL    HW164336   7.280   2.478   7.381  0.8008 -0.0245  2.3571
20965SOL    HW264337   7.353   2.537   7.263 -2.0537  1.2725  1.1283
20966SOL     OW64338   6.731   4.025   2.394 -0.2287 -0.0819  0.9193
20966SOL    HW164339   6.637   4.033   2.410  0.0118  4.0768  1.3909
20966SOL    HW264340   6.742   4.043   2.301  0.1267 -0.4749  0.8817
20967SOL     OW64341   7.544   6.497  11.582 -0.0056  0.1834 -0.6908
20967SOL    HW164342   7.538   6.592  11.596 -3.4838  0.1034 -0.9469
20967SOL    HW264343   7.489   6.459  11.651  0.9063 -1.6578 -0.9156
20968SOL     OW64344   4.170   5.443  12.281  0.7373 -0.2985  0.2522
20968SOL    HW164345   4.237   5.506  12.254  1.1257 -1.4143 -1.5695
20968SOL    HW264346   4.089   5.478  12.245  0.9553 -0.8207 -0.7761
20969SOL     OW64347   5.586   7.765   2.825 -0.4528  0.3342  0.5992
20969SOL    HW164348   5.541   7.847   2.803 -2.0696  0.0571  2.5803
20969SOL    HW264349   5.670   7.771   2.779 -1.2268  2.2944 -0.7206
20970SOL     OW64350   2.503   7.019   9.084 -0.0279 -0.4839  0.3606
20970SOL    HW164351   2.414   7.029   9.050 -0.1388 -0.2010  0.7326
20970SOL    HW264352   2.545   7.103   9.069 -0.0951 -0.3379  0.9694
20971SOL     OW64353   4.550   4.856   9.761  0.1544 -0.4122 -0.1251
20971SOL    HW164354   4.476   4.863   9.822  0.7780 -0.1622  0.6139
20971SOL    HW264355   4.556   4.762   9.741 -1.2689 -0.2832 -1.3526
20972SOL     OW64356   2.511   1.080   6.101 -0.3096  0.1979  0.4648
20972SOL    HW164357   2.428   1.045   6.068 -1.1349  1.6307  0.9158
20972SOL    HW264358   2.567   1.087   6.024 -1.4311  1.3696 -0.2853
20973SOL     OW64359   7.802   5.407   6.985  0.0065  0.0956 -0.4947
20973SOL    HW164360   7.772   5.378   6.898 -0.8898  0.6289 -0.3754
20973SOL    HW264361   7.777   5.499   6.989  0.0615  0.0754  0.3308
20974SOL     OW64362   1.967   1.113   8.111 -0.1359  0.0464 -0.1004
20974SOL    HW164363   1.983   1.141   8.021  0.3288  0.1133 -0.0015
20974SOL    HW264364   2.042   1.056   8.131 -0.2749 -0.0242  0.2180
20975SOL     OW64365   4.045   2.900   5.149  1.1063  0.2459 -0.2605
20975SOL    HW164366   3.970   2.934   5.199  1.1631  0.3262 -0.2297
20975SOL    HW264367   4.045   2.952   5.069  1.1156  0.2307 -0.2702
20976SOL     OW64368   3.341   2.382   5.447  0.1424 -0.3056  0.8035
20976SOL    HW164369   3.384   2.393   5.532  0.6266 -1.5451  0.7339
20976SOL    HW264370   3.411   2.392   5.383 -0.1231  0.0698  0.5641
20977SOL     OW64371   5.998   3.140  10.803  0.3866 -0.1908 -0.4126
20977SOL    HW164372   5.906   3.126  10.781 -0.3773  0.6030  1.8618
20977SOL    HW264373   6.042   3.154  10.719 -1.0268 -3.1984 -1.7862
20978SOL     OW64374   6.638   5.591   3.270  0.6970 -0.5981  0.4751
20978SOL    HW164375   6.656   5.582   3.176 -0.9565 -1.0905  0.1709
20978SOL    HW264376   6.578   5.519   3.289 -0.6741  0.7489  1.4412
20979SOL     OW64377   6.287   4.838   0.426  0.2174 -0.5782 -0.1033
20979SOL    HW164378   6.307   4.778   0.354 -0.8426  0.7970 -1.6043
20979SOL    HW264379   6.365   4.836   0.481  0.9172 -1.9392 -1.0939
20980SOL     OW64380   7.169   6.363  10.730 -0.0831  0.0286 -0.1754
20980SOL    HW164381   7.179   6.268  10.737  0.2448 -0.0204 -1.1572
20980SOL    HW264382   7.075   6.378  10.742 -0.2966 -0.5324 -0.9973
20981SOL     OW64383   1.063   0.249   5.811  0.0298  0.0010  0.2151
20981SOL    HW164384   1.087   0.299   5.889 -1.3369  0.6332  0.2707
20981SOL    HW264385   0.969   0.265   5.801  0.1246 -0.2830 -1.4072
20982SOL     OW64386   0.864   7.668   3.490  0.5008  0.3429  0.1170
20982SOL    HW164387   0.861   7.725   3.567 -1.5194 -1.3626  1.3937
20982SOL    HW264388   0.869   7.580   3.526 -0.1073 -0.4845 -1.7282
20983SOL     OW64389   6.083   5.211   2.389 -0.1078  0.3349 -0.2316
20983SOL    HW164390   6.076   5.253   2.303  0.3157  0.4025 -0.2350
20983SOL    HW264391   6.048   5.277   2.449  0.6187  0.7309 -0.2295
20984SOL     OW64392   7.218   2.473   3.909  0.8600  0.4841  0.0059
20984SOL    HW164393   7.278   2.417   3.860 -0.4003 -0.8934 -0.0103
20984SOL    HW264394   7.183   2.534   3.843 -0.3444 -0.9538 -0.7432
20985SOL     OW64395   3.610   1.807   6.311 -0.2804 -0.1141  0.5561
20985SOL    HW164396   3.568   1.721   6.312 -0.8814  0.1751  0.8807
20985SOL    HW264397   3.703   1.788   6.323 -0.4060 -0.7213  0.6150
20986SOL     OW64398   7.266   3.683  12.406  0.3537  0.7170  0.0609
20986SOL    HW164399   7.326   3.756  12.416 -0.8280  1.5297  1.7339
20986SOL    HW264400   7.232   3.667  12.494 -0.8527 -0.5795 -0.5907
20987SOL     OW64401   0.479   2.723   5.096 -0.0246  0.0168  0.1104
20987SOL    HW164402   0.561   2.772   5.104  0.9340 -1.4462 -0.3519
20987SOL    HW264403   0.496   2.659   5.027 -1.3902 -0.6391  0.3557
20988SOL     OW64404   4.477   6.361   8.536 -0.1869 -0.0203 -0.2839
20988SOL    HW164405   4.518   6.390   8.454 -0.0777  1.8622  0.3684
20988SOL    HW264406   4.396   6.412   8.541  0.2646  0.6131  1.1993
20989SOL     OW64407   1.163   2.935   6.546 -0.0113 -0.6097 -0.1487
20989SOL    HW164408   1.138   3.028   6.548 -0.0463 -0.6248  0.2847
20989SOL    HW264409   1.127   2.899   6.627 -0.2345 -1.0667 -0.4458
20990SOL     OW64410   6.325   5.429   9.635  0.1663  0.3496  0.1084
20990SOL    HW164411   6.242   5.467   9.608 -1.6207 -2.9057  0.5286
20990SOL    HW264412   6.345   5.470   9.719 -0.4184  1.9198 -0.4917
20991SOL     OW64413   4.318   1.559   4.066 -0.2056 -0.3092 -0.2354
20991SOL    HW164414   4.338   1.466   4.066  1.4695  0.0316 -0.1384
20991SOL    HW264415   4.403   1.603   4.074 -0.9625  1.2273 -0.1744
20992SOL     OW64416   6.930   3.172   7.683 -0.5527 -0.5454  0.4183
20992SOL    HW164417   6.840   3.163   7.650 -0.0022 -2.5334 -0.7328
20992SOL    HW264418   6.983   3.187   7.605  0.0551  1.7270  1.1892
20993SOL     OW64419   5.850   5.902   4.317  0.1015 -0.1943  0.6328
20993SOL    HW164420   5.770   5.951   4.303  0.3367 -0.2682 -1.2226
20993SOL    HW264421   5.835   5.817   4.275  1.8984  0.5999 -1.8804
20994SOL     OW64422   0.279   6.914   6.355 -0.2112 -0.2602  0.4860
20994SOL    HW164423   0.199   6.912   6.302 -0.0494 -1.7086  0.2513
20994SOL    HW264424   0.252   6.952   6.438 -1.0078 -0.1946  0.2059
20995SOL     OW64425   4.359   4.965   1.472  0.7156 -0.6338  0.2885
20995SOL    HW164426   4.359   4.930   1.562  2.3360 -1.6894 -0.0627
20995SOL    HW264427   4.441   4.933   1.435 -0.7798 -1.8508 -2.2086
20996SOL     OW64428   5.602   7.691   3.550  0.4643 -0.8094  0.1800
20996SOL    HW164429   5.678   7.727   3.504  0.9462  0.3522  1.7614
20996SOL    HW264430   5.614   7.596   3.546  2.6702 -0.6524  1.3726
20997SOL     OW64431   4.756   4.766   7.576 -0.2631  0.3507 -0.1448
20997SOL    HW164432   4.690   4.822   7.537 -1.1148 -0.5145  0.0333
20997SOL    HW264433   4.721   4.677   7.569  2.5736 -0.7545 -3.7377
20998SOL     OW64434   5.167   3.700  11.448  0.6349  0.2712  0.4899
20998SOL    HW164435   5.237   3.640  11.476  1.0416  0.4778 -0.0624
20998SOL    HW264436   5.148   3.752  11.525  1.8722  0.9564  0.3610
20999SOL     OW64437   7.702   3.670   5.837 -0.1515  0.4536 -0.1320
20999SOL    HW164438   7.725   3.602   5.773  2.7583  0.7267  0.4749
20999SOL    HW264439   7.765   3.740   5.821 -0.8517  1.5166  1.5278
21000SOL     OW64440   6.889   5.601  12.292 -0.3221  0.2715  0.5662
21000SOL    HW164441   6.879   5.525  12.349 -0.7368  1.1835  1.7567
21000SOL    HW264442   6.891   5.565  12.203 -0.4273 -1.1198  1.1072
21001SOL     OW64443   1.348   2.440   7.089 -0.3583 -0.1069 -0.0154
21001SOL    HW164444   1.350   2.436   6.994  0.1121  1.0867 -0.0720
21001SOL    HW264445   1.414   2.377   7.117 -0.8219 -0.8030 -0.4568
21002SOL     OW64446   5.435   6.998   6.184  0.0757 -0.0348  0.5926
21002SOL    HW164447   5.491   6.950   6.246 -1.4117  1.0195  2.9227
21002SOL    HW264448   5.495   7.034   6.120  1.6141 -2.0580  0.7736
21003SOL     OW64449   7.085   6.444  12.001  0.2979  0.1215 -0.0200
21003SOL    HW164450   7.049   6.527  12.031 -0.2053 -0.4278  0.9495
21003SOL    HW264451   7.143   6.416  12.071 -2.5557 -2.2585  1.6730
21004SOL     OW64452   1.131   4.840   3.158 -0.4936  0.1954  0.1330
21004SOL    HW164453   1.200   4.859   3.094 -0.1155 -0.4728  0.3356
21004SOL    HW264454   1.123   4.745   3.158  1.2724 -0.0536  2.8617
21005SOL     OW64455   3.048   7.392  11.188 -0.1641  0.7338  0.0965
21005SOL    HW164456   3.098   7.465  11.151 -0.1740  0.2531 -0.8737
21005SOL    HW264457   3.095   7.314  11.161  0.3005  0.3776  1.8046
21006SOL     OW64458   6.913   1.024   3.566 -0.0786  0.0026  0.3273
21006SOL    HW164459   6.912   1.002   3.659 -0.8494 -2.0934 -0.1151
21006SOL    HW264460   6.900   0.940   3.522  0.5772  0.9033 -1.6938
21007SOL     OW64461   6.480   6.072   0.737 -0.4898 -0.0310  1.3848
21007SOL    HW164462   6.386   6.081   0.752 -0.5740 -0.8443  1.3734
21007SOL    HW264463   6.498   6.124   0.659 -1.1539 -0.8630  0.6561
21008SOL     OW64464   7.761   1.883   8.358 -0.1828 -0.0604 -0.0423
21008SOL    HW164465   7.718   1.923   8.433 -1.8804  1.2470 -1.6170
21008SOL    HW264466   7.711   1.804   8.341  0.3367 -0.4712  0.3214
21009SOL     OW64467   2.925   5.739   2.753  0.1797  0.8402  0.3950
21009SOL    HW164468   3.015   5.726   2.781  0.2763 -1.2902 -0.6923
21009SOL    HW264469   2.931   5.805   2.684  0.9681  0.4423  0.0675
21010SOL     OW64470   5.686   2.634   9.429 -0.5844  0.4896 -0.1408
21010SOL    HW164471   5.600   2.651   9.467 -1.1955 -1.3528 -0.5714
21010SOL    HW264472   5.668   2.613   9.338  0.7622  3.8489 -1.3120
21011SOL     OW64473   2.605   4.905   3.265  0.6557  0.0785 -0.0210
21011SOL    HW164474   2.626   4.980   3.208  0.1201  0.6743  0.5400
21011SOL    HW264475   2.601   4.943   3.353 -1.4295 -0.2421  0.0678
21012SOL     OW64476   7.446   0.499   7.318  0.1925  0.1864 -0.3374
21012SOL    HW164477   7.405   0.545   7.244  0.7618  2.3203  0.5842
21012SOL    HW264478   7.373   0.479   7.377 -0.0267  0.2350 -0.5907
21013SOL     OW64479   0.734   7.197   7.611 -0.4066 -0.2469 -0.1584
21013SOL    HW164480   0.748   7.229   7.522  2.5360 -2.2027 -0.5633
21013SOL    HW264481   0.819   7.207   7.654 -0.8747 -2.2323  1.4121
21014SOL     OW64482   2.047   0.243   5.843 -0.2140  0.2341 -0.1249
21014SOL    HW164483   2.125   0.190   5.860 -0.8473 -1.0668 -1.1632
21014SOL    HW264484   2.011   0.260   5.930 -0.2520 -1.4466  0.2227
21015SOL     OW64485   3.287   4.289   2.382 -0.2347  0.4194  0.2993
21015SOL    HW164486   3.359   4.297   2.445 -0.3896 -1.9486  0.8695
21015SOL    HW264487   3.209   4.280   2.436 -0.3392 -1.9140 -0.1222
21016SOL     OW64488   6.691   4.409  10.462 -0.1974  0.0011  0.3773
21016SOL    HW164489   6.612   4.356  10.467 -0.6393  0.2562 -2.4204
21016SOL    HW264490   6.763   4.346  10.461 -0.3841 -0.2724  1.8970
21017SOL     OW64491   2.689   6.397  10.738  0.1467  0.3022  0.6528
21017SOL    HW164492   2.690   6.367  10.647  0.4593  0.2154  0.6831
21017SOL    HW264493   2.758   6.346  10.780 -1.2922 -1.1175  1.4140
21018SOL     OW64494   1.246   4.126   8.950 -0.1097 -0.6128 -0.2795
21018SOL    HW164495   1.251   4.049   8.894  0.9746  0.7108 -2.1236
21018SOL    HW264496   1.203   4.095   9.030 -2.8930 -2.3207 -2.2674
21019SOL     OW64497   4.680   1.985   9.196  0.0930 -0.0576  0.2831
21019SOL    HW164498   4.772   1.966   9.213  0.3412  1.3052  0.6380
21019SOL    HW264499   4.637   1.975   9.281 -0.3506 -1.9026 -0.1142
21020SOL     OW64500   2.532   3.981   5.175 -0.2604 -0.2530  0.4247
21020SOL    HW164501   2.533   4.056   5.115  0.4192 -0.6579 -0.0829
21020SOL    HW264502   2.493   4.016   5.255 -2.2277  0.0210 -0.5891
21021SOL     OW64503   4.290   0.546   6.295 -0.0375  0.1072  0.0053
21021SOL    HW164504   4.334   0.563   6.379  0.8430  0.6508 -0.5505
21021SOL    HW264505   4.289   0.451   6.287  0.4866  0.0708  0.3166
21022SOL     OW64506   3.863   0.355   4.121 -0.1878  0.1370 -0.2070
21022SOL    HW164507   3.897   0.365   4.209 -1.1804 -1.3437  0.3845
21022SOL    HW264508   3.921   0.291   4.080  0.4008  0.9767 -0.7431
21023SOL     OW64509   2.252   3.882   6.728  0.0572  0.0238  0.2064
21023SOL    HW164510   2.190   3.810   6.737 -1.2783  1.3030  1.9299
21023SOL    HW264511   2.337   3.842   6.744 -0.4358 -1.5077 -0.7896
21024SOL     OW64512   7.646   6.330   4.999  0.1099 -0.6317  0.1777
21024SOL    HW164513   7.631   6.285   5.082 -0.0695 -0.4028  0.2705
21024SOL    HW264514   7.722   6.286   4.961 -0.2887 -1.2629  0.0947
21025SOL     OW64515   5.382   2.050   3.319 -0.3843 -0.0931  0.4175
21025SOL    HW164516   5.356   1.959   3.301  2.6840 -1.2556  1.3087
21025SOL    HW264517   5.474   2.055   3.293 -0.3548  2.7180  0.7069
21026SOL     OW64518   7.243   2.031  10.424 -0.1978  0.3421 -0.3124
21026SOL    HW164519   7.260   1.942  10.453 -0.4630  0.1289 -0.7908
21026SOL    HW264520   7.208   2.076  10.501  1.4483  0.4867  0.3770
21027SOL     OW64521   1.187   0.626   2.065  0.2703 -0.1843  0.0071
21027SOL    HW164522   1.142   0.675   2.135 -0.3644 -0.8239  0.0585
21027SOL    HW264523   1.116   0.579   2.020  0.9518 -1.6705  0.4516
21028SOL     OW64524   2.397   2.334   5.850 -0.4987 -0.2052  0.2008
21028SOL    HW164525   2.363   2.357   5.936 -2.3600 -1.0419 -0.2663
21028SOL    HW264526   2.399   2.416   5.802 -0.3965  0.1032  0.7280
21029SOL     OW64527   6.149   3.896   3.935 -0.2663  0.3313 -0.2908
21029SOL    HW164528   6.150   3.937   3.849 -1.5374  0.2260 -0.3776
21029SOL    HW264529   6.150   3.802   3.917  1.1551  0.3008 -0.1327
21030SOL     OW64530   1.781   6.097   5.466 -0.5177 -0.0932 -0.3299
21030SOL    HW164531   1.791   6.130   5.556 -2.3391  0.6951 -0.3617
21030SOL    HW264532   1.794   6.003   5.474  1.0354  0.1567  0.4488
21031SOL     OW64533   1.990   7.108   1.990 -0.3681  0.2055 -0.2655
21031SOL    HW164534   2.029   7.194   2.006  1.2893 -0.4838 -0.3936
21031SOL    HW264535   2.063   7.054   1.961 -1.1394 -1.5496  0.9012
21032SOL     OW64536   5.106   1.313  12.153 -0.5087  0.3649 -1.1314
21032SOL    HW164537   5.069   1.234  12.191 -2.1059  0.6607 -1.9958
21032SOL    HW264538   5.076   1.383  12.211 -0.7080  0.5368 -1.4425
21033SOL     OW64539   6.306   7.613   5.402  0.1525  0.6312  0.9198
21033SOL    HW164540   6.220   7.572   5.409 -0.1481  0.4451 -2.2413
21033SOL    HW264541   6.289   7.701   5.366  1.2411  0.4296 -0.2007
21034SOL     OW64542   4.951   6.776   1.778 -0.1737  0.1524  1.3765
21034SOL    HW164543   4.944   6.852   1.720 -3.4090  0.5829  2.1886
21034SOL    HW264544   4.938   6.700   1.720  1.3542  0.2418  0.8546
21035SOL     OW64545   0.917   7.107   9.614  0.0806 -0.1329  0.1349
21035SOL    HW164546   0.935   7.015   9.633 -2.7873 -0.8155  0.0012
21035SOL    HW264547   0.877   7.141   9.694 -1.8881  0.0254 -0.8434
21036SOL     OW64548   2.659   2.261   5.887  0.0689 -0.0528 -0.1756
21036SOL    HW164549   2.703   2.281   5.805 -1.0976  1.4740 -0.4553
21036SOL    HW264550   2.566   2.278   5.870 -0.5373 -2.1121  0.7312
21037SOL     OW64551   7.817   1.347   7.264 -0.3161  0.1526 -0.5962
21037SOL    HW164552   7.728   1.345   7.299 -0.0008  1.9162  0.3902
21037SOL    HW264553   7.873   1.326   7.338  0.2358  1.9447 -0.4638
21038SOL     OW64554   4.945   2.038  11.728 -0.8766  0.1507  0.0121
21038SOL    HW164555   4.883   1.980  11.684 -0.7647 -0.5737  0.7863
21038SOL    HW264556   4.943   2.011  11.819  0.4055  0.2837  0.0961
21039SOL     OW64557   1.195   5.162   2.880  0.2589 -0.7449  0.3631
21039SOL    HW164558   1.245   5.088   2.844 -1.1237 -1.9242  0.7529
21039SOL    HW264559   1.116   5.121   2.917  0.1903  0.7583  1.9999
21040SOL     OW64560   6.937   1.248   2.741  0.0126  0.3764  0.1221
21040SOL    HW164561   6.907   1.264   2.831 -0.5504  0.5464 -0.0912
21040SOL    HW264562   7.028   1.279   2.740  0.7508 -1.5564  1.2049
21041SOL     OW64563   1.789   4.490  10.573  0.4517 -0.1473 -0.4624
21041SOL    HW164564   1.720   4.467  10.635  0.3912 -0.0009 -0.4758
21041SOL    HW264565   1.793   4.415  10.514  0.9416 -0.5662  0.0934
21042SOL     OW64566   5.073   1.552   6.490  0.2026  0.5709 -1.0836
21042SOL    HW164567   5.009   1.622   6.481  1.0299  1.2159 -2.3433
21042SOL    HW264568   5.095   1.550   6.583 -1.2713  0.6484 -0.7192
21043SOL     OW64569   7.965   6.086   6.195  0.4625  0.1059 -0.4995
21043SOL    HW164570   7.888   6.136   6.170 -1.1695  0.8458  4.7214
21043SOL    HW264571   8.028   6.152   6.226  1.2266 -0.7172 -0.2473
21044SOL     OW64572   2.019   2.514   7.310  0.4043 -0.1160  0.3824
21044SOL    HW164573   2.062   2.571   7.373  0.1631 -1.5593  1.9471
21044SOL    HW264574   1.927   2.540   7.311  0.5748  0.5304 -0.1651
21045SOL     OW64575   3.302   3.137   5.743  0.1481  0.1149  0.4444
21045SOL    HW164576   3.234   3.199   5.769 -0.1825 -0.3479  0.6774
21045SOL    HW264577   3.378   3.161   5.797  0.7937  1.8285 -1.1073
21046SOL     OW64578   0.191   1.868   2.709 -0.0104 -0.2496  0.7664
21046SOL    HW164579   0.138   1.852   2.632 -2.1453 -0.0430  2.1101
21046SOL    HW264580   0.178   1.791   2.765  0.5916  0.1033  1.4214
21047SOL     OW64581   2.936   5.271   7.158  0.0937  0.4503  0.2557
21047SOL    HW164582   2.999   5.293   7.090  0.9141  1.7133  1.3768
21047SOL    HW264583   2.856   5.248   7.111  0.7128  1.0541 -1.1310
21048SOL     OW64584   5.700   2.502   8.965  0.3037 -0.5469 -0.3826
21048SOL    HW164585   5.698   2.559   8.888  2.3253  0.3298  0.1420
21048SOL    HW264586   5.679   2.415   8.931  2.4231 -0.4408 -2.2385
21049SOL     OW64587   0.059   6.101   0.515 -0.0123  0.0021 -0.4014
21049SOL    HW164588   0.051   6.195   0.532 -0.2373  0.0831 -0.9124
21049SOL    HW264589   0.049   6.060   0.600 -0.1232  0.4330 -0.2037
21050SOL     OW64590   1.534   7.236  11.695 -0.0629  0.0762  0.1094
21050SOL    HW164591   1.531   7.141  11.698  1.4411  0.0273  1.8203
21050SOL    HW264592   1.499   7.264  11.780 -0.9336  1.0779 -0.5522
21051SOL     OW64593   3.790   0.749   0.005  0.6747 -0.5126 -0.2026
21051SOL    HW164594   3.825   0.811  -0.060  1.9797 -1.8905 -0.8809
21051SOL    HW264595   3.750   0.680  -0.047  0.6419 -1.0302  0.4955
21052SOL     OW64596   2.414   6.550  11.019 -0.3354 -0.2265  0.2432
21052SOL    HW164597   2.342   6.493  10.993  0.0384 -0.6389  0.1022
21052SOL    HW264598   2.442   6.516  11.104 -0.2210 -0.1476  0.2370
21053SOL     OW64599   5.946   1.442   5.666 -0.1253  0.0079 -0.0025
21053SOL    HW164600   6.012   1.440   5.735  0.0821 -0.1349 -0.2010
21053SOL    HW264601   5.879   1.501   5.698 -0.9103 -1.4226  1.1212
21054SOL     OW64602   2.301   4.130   1.131  0.0246 -0.0292  0.5220
21054SOL    HW164603   2.361   4.057   1.140  0.1406 -0.0972 -0.6138
21054SOL    HW264604   2.225   4.106   1.184  1.5975  0.7730  3.2855
21055SOL     OW64605   0.810   5.324  10.933 -0.3347  0.0302 -0.1949
21055SOL    HW164606   0.816   5.238  10.892 -0.8914 -0.4478  0.7018
21055SOL    HW264607   0.764   5.378  10.868 -2.8227 -1.1707  0.4529
21056SOL     OW64608   1.414   6.698   3.006 -0.0208 -0.0619 -0.0922
21056SOL    HW164609   1.435   6.769   2.945 -1.0441  1.0879  0.8201
21056SOL    HW264610   1.498   6.659   3.028  0.6716  1.3874 -0.0440
21057SOL     OW64611   1.474   4.759   2.418 -0.0509  0.5359  0.4976
21057SOL    HW164612   1.502   4.733   2.506  1.2017  1.2121  0.3368
21057SOL    HW264613   1.555   4.759   2.367 -0.9507 -1.2870 -1.0677
21058SOL     OW64614   1.263   1.168   4.985  0.1314  0.0640  0.5036
21058SOL    HW164615   1.259   1.085   5.032  0.4857 -0.1572  0.1389
21058SOL    HW264616   1.235   1.233   5.050 -2.5732 -0.5867  0.1154
21059SOL     OW64617   4.646   1.257   1.998 -0.1001 -0.1374  0.3669
21059SOL    HW164618   4.694   1.272   1.917  1.3100  2.1886  1.5148
21059SOL    HW264619   4.587   1.184   1.978  0.5827 -0.0232 -2.5375
21060SOL     OW64620   5.504   5.222   9.398 -0.0945  0.3481  0.1491
21060SOL    HW164621   5.461   5.225   9.483 -0.2181  0.9420  0.0737
21060SOL    HW264622   5.437   5.251   9.336 -0.3681 -1.1751 -0.3146
21061SOL     OW64623   1.029   6.967   7.638  0.3656 -0.2489 -0.0164
21061SOL    HW164624   1.021   7.056   7.672 -3.2932 -1.0191  1.5177
21061SOL    HW264625   0.997   6.973   7.548 -0.2880 -0.0946  0.2249
21062SOL     OW64626   4.214   5.072   6.397  1.0518 -0.2442  0.4816
21062SOL    HW164627   4.143   5.078   6.460  0.1385  1.4975 -0.6477
21062SOL    HW264628   4.172   5.078   6.311  2.4143 -0.7896 -0.2697
21063SOL     OW64629   2.729   2.742   0.913 -0.1747  0.6009  0.3804
21063SOL    HW164630   2.653   2.754   0.856 -2.2217  1.6591  3.0887
21063SOL    HW264631   2.707   2.665   0.966  0.6576  0.8910  1.1849
21064SOL     OW64632   6.642   5.408   0.011  0.5119  0.8341  1.1896
21064SOL    HW164633   6.722   5.357   0.003  0.2888  0.7428 -1.0401
21064SOL    HW264634   6.615   5.396   0.102  1.9334 -0.7743  1.4442
21065SOL     OW64635   3.877   4.008   7.417  1.3643 -0.0976 -0.0792
21065SOL    HW164636   3.947   3.990   7.479  0.3582 -0.1057  1.0914
21065SOL    HW264637   3.797   3.986   7.464  0.5627 -0.0140 -1.3568
21066SOL     OW64638   4.853   3.438   6.575  0.0602  0.1335  0.4279
21066SOL    HW164639   4.938   3.469   6.544  0.9953 -2.1298  0.5567
21066SOL    HW264640   4.825   3.374   6.510  0.1128 -1.6641  2.0810
21067SOL     OW64641   2.805   6.702   2.002 -0.0035 -0.0781 -0.7015
21067SOL    HW164642   2.799   6.665   1.914  1.9751  0.4454 -1.0852
21067SOL    HW264643   2.870   6.772   1.995  0.3463 -0.1591  1.2203
21068SOL     OW64644   6.433   0.047  10.102  0.5624  0.4965  0.0625
21068SOL    HW164645   6.367   0.006  10.047 -1.0902  3.2329 -0.1943
21068SOL    HW264646   6.515   0.002  10.079 -0.3539  0.2555 -3.3015
21069SOL     OW64647   2.522   1.626   9.567  0.3387  0.0913 -0.1998
21069SOL    HW164648   2.610   1.591   9.581 -0.0049 -1.3855 -1.4295
21069SOL    HW264649   2.532   1.690   9.497  0.0230 -2.4534 -2.7355
21070SOL     OW64650   0.348   5.618   7.163 -0.0825  0.1655 -0.0066
21070SOL    HW164651   0.295   5.600   7.085 -1.0880  1.5787  0.3106
21070SOL    HW264652   0.437   5.624   7.130 -0.4448  0.3501 -0.9886
21071SOL     OW64653   2.222   3.482   4.307 -0.5696 -0.5940  0.3586
21071SOL    HW164654   2.278   3.433   4.248 -0.7673 -1.1866  0.6553
21071SOL    HW264655   2.144   3.502   4.255  0.6727  1.9323 -0.6936
21072SOL     OW64656   3.649   0.998   2.852 -0.0633 -0.5750  0.0040
21072SOL    HW164657   3.722   0.980   2.911  0.3206 -0.3382 -0.3885
21072SOL    HW264658   3.622   0.911   2.821 -1.3990 -0.8611  1.8186
21073SOL     OW64659   2.889   7.946   3.259  0.5944  0.1329 -1.0595
21073SOL    HW164660   2.898   7.956   3.354 -0.5461 -0.6749 -0.8372
21073SOL    HW264661   2.971   7.907   3.230  1.3083  1.2121 -0.5538
21074SOL     OW64662   2.611   4.609   2.358  0.1918 -0.3099 -0.3186
21074SOL    HW164663   2.689   4.621   2.413 -0.7714 -1.1852  1.2967
21074SOL    HW264664   2.613   4.517   2.334  0.8531  0.1638 -2.2069
21075SOL     OW64665   2.323   0.233   3.281 -0.0405 -0.1954  0.4424
21075SOL    HW164666   2.231   0.247   3.301 -0.3059  1.1636 -1.4990
21075SOL    HW264667   2.365   0.317   3.298  0.4139 -0.1567 -0.7201
21076SOL     OW64668   4.436   4.673   8.583  0.0218  0.5256  0.6584
21076SOL    HW164669   4.507   4.690   8.520  1.4203  0.1838  2.0762
21076SOL    HW264670   4.453   4.583   8.613 -1.3701  0.2307  0.6002
21077SOL     OW64671   7.904   3.588  11.342 -0.2618  0.1047  0.3409
21077SOL    HW164672   7.863   3.572  11.427  1.3652 -1.1238  0.9683
21077SOL    HW264673   7.923   3.681  11.341 -1.7051  0.4249  0.6316
21078SOL     OW64674   7.733   5.615   4.617  1.0645 -0.2821  0.2902
21078SOL    HW164675   7.720   5.691   4.560  0.6170 -0.3735  0.2687
21078SOL    HW264676   7.821   5.628   4.654  0.7369  0.6031  0.8199
21079SOL     OW64677   5.220   2.655   4.169 -0.8616  0.0867  0.0791
21079SOL    HW164678   5.287   2.650   4.237 -1.2147  0.8051  0.4843
21079SOL    HW264679   5.268   2.646   4.087 -0.3217  0.1912  0.3812
21080SOL     OW64680   2.475   6.110   3.042 -0.6103  0.4230  0.0199
21080SOL    HW164681   2.519   6.090   3.124 -0.6882  2.2465  0.5441
21080SOL    HW264682   2.450   6.202   3.049 -0.6496  0.6301 -2.0312
21081SOL     OW64683   7.939   1.920  12.128  0.1825  0.4817 -0.2253
21081SOL    HW164684   7.990   1.847  12.164 -0.6142  0.0623  0.0823
21081SOL    HW264685   7.988   1.948  12.050 -0.6346 -1.8647 -1.6916
21082SOL     OW64686   7.832   6.526   1.334 -0.1564 -0.0460  0.4272
21082SOL    HW164687   7.828   6.476   1.252 -1.3612 -0.1033  0.5086
21082SOL    HW264688   7.774   6.601   1.320 -1.3136 -0.6678  1.6146
21083SOL     OW64689   0.432   3.817   2.821 -0.1508 -0.4629 -0.5020
21083SOL    HW164690   0.422   3.837   2.728 -1.2807 -1.5462 -0.6503
21083SOL    HW264691   0.522   3.786   2.830  0.3121  0.6719 -1.0066
21084SOL     OW64692   0.430   0.352   6.966  0.1136 -0.3167 -0.4999
21084SOL    HW164693   0.343   0.376   6.997  0.3357 -0.1276 -0.0196
21084SOL    HW264694   0.484   0.429   6.982  0.2620 -0.2517 -1.2584
21085SOL     OW64695   2.186   0.195  10.401  0.4158 -0.4832 -0.4864
21085SOL    HW164696   2.238   0.117  10.383  0.0870 -0.9414  0.4715
21085SOL    HW264697   2.098   0.173  10.368  0.0233 -1.0055  0.8038
21086SOL     OW64698   3.322   6.760   9.665  0.0307  0.1046  0.0290
21086SOL    HW164699   3.347   6.821   9.734  2.4640  0.3757 -1.0165
21086SOL    HW264700   3.268   6.812   9.605 -1.0997  0.1663  1.0458
21087SOL     OW64701   3.543   5.825   1.608  0.1537 -0.6765  0.8184
21087SOL    HW164702   3.568   5.795   1.520 -1.2579 -0.0938  0.1912
21087SOL    HW264703   3.454   5.792   1.621 -0.4882  1.0568  1.1227
21088SOL     OW64704   1.077   3.975  10.414 -0.2853 -0.3123  0.4201
21088SOL    HW164705   1.130   3.944  10.341 -1.5224  0.1026 -0.6931
21088SOL    HW264706   1.133   4.038  10.459 -0.0091  0.5517 -1.0692
21089SOL     OW64707   3.151   5.100   0.404 -0.5412 -0.0887  0.3215
21089SOL    HW164708   3.062   5.085   0.436 -0.8300  2.5371  0.9760
21089SOL    HW264709   3.146   5.184   0.358  1.1770 -0.9080 -1.4909
21090SOL     OW64710   2.951   3.870  12.388 -0.3151 -0.1105 -0.1608
21090SOL    HW164711   3.007   3.947  12.376 -0.7870  0.0294 -1.6145
21090SOL    HW264712   2.973   3.812  12.316 -0.6150 -0.9553  0.4077
21091SOL     OW64713   4.456   1.175   7.014  0.6114 -0.4627 -0.1964
21091SOL    HW164714   4.461   1.092   7.060 -0.7763  0.1024  1.0929
21091SOL    HW264715   4.532   1.224   7.044  0.9838 -0.9624 -0.3195
21092SOL     OW64716   5.872   6.331   6.081  0.3590  0.4846  0.4067
21092SOL    HW164717   5.902   6.406   6.132  2.4946  0.2013 -0.3017
21092SOL    HW264718   5.951   6.299   6.037 -0.7574 -1.3193 -0.4270
21093SOL     OW64719   6.753   1.253   2.526  0.0627  0.2961 -0.4485
21093SOL    HW164720   6.798   1.274   2.608  1.8811  0.0242 -1.3278
21093SOL    HW264721   6.718   1.337   2.495  0.2559  0.5798  0.0962
21094SOL     OW64722   7.275   6.244   1.814  0.1658  0.2632 -0.3066
21094SOL    HW164723   7.184   6.244   1.843 -0.1197 -2.0713 -1.0101
21094SOL    HW264724   7.269   6.229   1.719  1.3001 -0.8825 -0.2100
21095SOL     OW64725   3.514   5.131   1.033  0.4533 -0.4536 -0.2152
21095SOL    HW164726   3.485   5.081   1.109  1.5150 -0.8031 -0.0267
21095SOL    HW264727   3.454   5.105   0.963 -0.5446 -0.1125  0.4906
21096SOL     OW64728   5.122   1.566   7.393 -0.0761  0.2825 -0.2545
21096SOL    HW164729   5.189   1.554   7.461 -0.9592  1.6198  0.9168
21096SOL    HW264730   5.158   1.634   7.336  0.2734 -0.1984 -0.6184
21097SOL     OW64731   1.362   0.466   5.849  0.0186 -0.2341  0.4502
21097SOL    HW164732   1.290   0.474   5.911  0.0069 -1.6358  0.6378
21097SOL    HW264733   1.405   0.552   5.852  0.8729 -0.6529  3.4723
21098SOL     OW64734   4.265   5.335   6.926  0.0260  0.4147 -0.1016
21098SOL    HW164735   4.347   5.379   6.900  0.6676 -0.5884  0.1522
21098SOL    HW264736   4.220   5.319   6.843 -0.1384  1.3776 -0.2113
21099SOL     OW64737   4.869   5.885  11.950 -0.5242  0.7821 -0.5879
21099SOL    HW164738   4.828   5.832  11.881 -1.2710  1.2041 -0.4832
21099SOL    HW264739   4.963   5.869  11.940 -0.7679 -1.3898  0.1158
21100SOL     OW64740   1.585   4.761   5.250  0.8401  0.2807 -0.2393
21100SOL    HW164741   1.525   4.707   5.302  0.1726 -0.4123 -1.6495
21100SOL    HW264742   1.547   4.760   5.162  2.8460 -0.0799 -1.1687
21101SOL     OW64743   6.082   7.302  10.725 -0.3284  0.4827  0.2750
21101SOL    HW164744   6.095   7.368  10.794  0.2451  0.8848 -0.2062
21101SOL    HW264745   6.124   7.340  10.648 -1.1678  0.1449 -0.3661
21102SOL     OW64746   1.934   6.939   3.507 -0.2442 -0.2873  0.1364
21102SOL    HW164747   1.991   7.008   3.540 -2.2638  1.8014 -0.5185
21102SOL    HW264748   1.916   6.883   3.583  0.6621  0.4408  0.9062
21103SOL     OW64749   0.938   5.157  11.868  0.5487  0.8520 -0.0117
21103SOL    HW164750   0.868   5.214  11.834  1.0803  2.0797  0.9013
21103SOL    HW264751   0.897   5.111  11.941 -0.0908 -0.5194 -1.1796
21104SOL     OW64752   1.405   0.989   4.329  0.3084 -0.1729 -0.4704
21104SOL    HW164753   1.356   1.071   4.328 -1.9860 -1.3852  1.3879
21104SOL    HW264754   1.486   1.008   4.283  0.2822  3.3856  0.7122
21105SOL     OW64755   0.330   0.825   9.903  0.6156  0.0166 -0.0790
21105SOL    HW164756   0.273   0.770   9.850 -0.1088  1.6287 -1.0346
21105SOL    HW264757   0.393   0.862   9.842  1.6591 -0.4397  0.6953
21106SOL     OW64758   1.737   4.201   9.623 -0.3788 -0.0475 -0.5429
21106SOL    HW164759   1.725   4.291   9.596 -0.5283 -0.3340 -1.4727
21106SOL    HW264760   1.651   4.160   9.612 -0.3668 -0.2509  0.0833
21107SOL     OW64761   6.228   6.538   9.560  0.0248 -0.0600  0.6130
21107SOL    HW164762   6.297   6.489   9.605  1.0349  0.7642  0.0173
21107SOL    HW264763   6.248   6.630   9.579 -1.6613  0.1601  1.4742
21108SOL     OW64764   7.413   1.700   8.613  0.0483 -0.7496 -0.5116
21108SOL    HW164765   7.330   1.660   8.639 -0.1318  1.4722  2.9724
21108SOL    HW264766   7.390   1.755   8.538 -1.3036 -1.2381 -0.4915
21109SOL     OW64767   4.544   4.315  11.251  0.2648  0.3684 -0.0334
21109SOL    HW164768   4.614   4.324  11.316  1.2263  0.0886 -0.9967
21109SOL    HW264769   4.538   4.401  11.210  0.7609  0.1311 -0.6334
21110SOL     OW64770   4.978   4.543   0.827 -0.6221  0.1636  0.3158
21110SOL    HW164771   4.995   4.627   0.785  0.3988 -0.8341 -1.4038
21110SOL    HW264772   5.014   4.552   0.915 -0.0193  1.3431 -0.0374
21111SOL     OW64773   1.805   7.515   7.675 -0.3079 -0.1179 -0.7571
21111SOL    HW164774   1.858   7.532   7.598 -1.3251  0.4757 -1.3407
21111SOL    HW264775   1.716   7.502   7.642 -0.6667 -0.3948  0.2604
21112SOL     OW64776   7.843   5.412   9.886  0.1057 -0.2582 -0.6374
21112SOL    HW164777   7.869   5.349   9.954 -1.1755  0.3624  0.4776
21112SOL    HW264778   7.882   5.378   9.806 -0.1811 -2.2284  0.0072
21113SOL     OW64779   2.431   6.090   8.178  0.0624 -0.2969  0.2797
21113SOL    HW164780   2.526   6.083   8.182  0.0524 -1.3829 -0.7230
21113SOL    HW264781   2.414   6.176   8.142  0.6238  0.2505  1.2663
21114SOL     OW64782   1.239   6.819   1.386 -0.2075 -0.2299 -0.4844
21114SOL    HW164783   1.211   6.805   1.476  0.4991  1.4131  0.0319
21114SOL    HW264784   1.332   6.839   1.393 -0.3963  1.1198 -1.4179
21115SOL     OW64785   1.474   6.936   2.837 -0.7839  0.0996 -0.3088
21115SOL    HW164786   1.532   6.981   2.899  0.0940 -0.1938 -0.8898
21115SOL    HW264787   1.413   7.004   2.807  0.2302  0.8122 -0.8339
21116SOL     OW64788   6.178   7.898   4.534  0.2671  0.0068 -0.2281
21116SOL    HW164789   6.117   7.893   4.461 -0.8733  0.9132  0.6287
21116SOL    HW264790   6.217   7.985   4.527 -2.6987  1.7608  2.3287
21117SOL     OW64791   5.919   0.693   6.933  0.2447  0.0005 -0.3340
21117SOL    HW164792   5.959   0.625   6.879 -1.0227 -0.5606 -0.5961
21117SOL    HW264793   5.847   0.649   6.978 -0.3906  1.0864 -0.2556
21118SOL     OW64794   2.325   5.364  11.957  0.0869 -0.0361  0.0487
21118SOL    HW164795   2.405   5.336  12.002  0.3426 -1.4827 -1.2193
21118SOL    HW264796   2.256   5.307  11.993 -0.6719  1.9106  1.9278
21119SOL     OW64797   2.277   5.070   0.981 -0.1450  0.4256 -0.6885
21119SOL    HW164798   2.335   5.086   1.056  0.6596  0.4458 -1.3000
21119SOL    HW264799   2.296   4.981   0.954 -1.8449 -0.2943  0.3160
21120SOL     OW64800   6.016   1.384  11.506  0.2849 -0.5135  0.4700
21120SOL    HW164801   5.984   1.418  11.590  1.1019 -1.2064  1.0918
21120SOL    HW264802   6.104   1.351  11.526 -0.3321 -2.7062 -0.1221
21121SOL     OW64803   5.089   0.476   8.348 -0.1027 -0.0157  0.5930
21121SOL    HW164804   5.181   0.484   8.321  0.2530  0.7825  1.9195
21121SOL    HW264805   5.041   0.463   8.267  1.0049  1.2154 -0.3042
21122SOL     OW64806   0.569   0.239   5.139 -0.7271 -0.0728  0.2273
21122SOL    HW164807   0.647   0.200   5.179 -0.0905 -0.6511 -1.4706
21122SOL    HW264808   0.603   0.299   5.073 -1.7265  0.0563 -0.1943
21123SOL     OW64809   6.394   4.443   9.912  0.0691 -0.1363 -0.2006
21123SOL    HW164810   6.351   4.477   9.834  0.6750  1.8218  0.2596
21123SOL    HW264811   6.420   4.521   9.961 -0.4113 -1.3094  2.0338
21124SOL     OW64812   2.137   6.416  12.398  0.3142  0.2281  0.2365
21124SOL    HW164813   2.090   6.338  12.427 -0.8385  0.2879 -1.3422
21124SOL    HW264814   2.091   6.444  12.319  1.9473  1.3354 -0.3789
21125SOL     OW64815   5.141   3.154   7.907 -0.0433 -0.6984 -0.2751
21125SOL    HW164816   5.139   3.214   7.982 -2.1471  0.1266 -0.9334
21125SOL    HW264817   5.224   3.175   7.863  0.0736  0.5269  0.4718
21126SOL     OW64818   5.094   5.716   8.696  0.4965 -0.2996 -0.3472
21126SOL    HW164819   5.028   5.710   8.765  0.0465 -0.3057 -0.7648
21126SOL    HW264820   5.152   5.642   8.711  0.4211 -0.2838  0.0382
21127SOL     OW64821   3.953   1.957  11.538  0.3334 -0.1869 -0.8942
21127SOL    HW164822   3.942   1.909  11.621 -1.7459 -0.3614 -1.2182
21127SOL    HW264823   3.893   2.031  11.545  1.2402  0.6544 -1.6670
21128SOL     OW64824   6.788   7.397  10.119  1.0285 -0.1390  0.1926
21128SOL    HW164825   6.827   7.311  10.138  2.5385  0.4413 -0.0946
21128SOL    HW264826   6.809   7.412  10.027 -1.3250 -0.4756 -0.4575
21129SOL     OW64827   3.307   2.131   3.435  0.0026  0.3390  0.4001
21129SOL    HW164828   3.361   2.177   3.500 -0.2376  0.4867  0.4992
21129SOL    HW264829   3.220   2.171   3.445 -0.3436 -0.4940  0.8506
21130SOL     OW64830   5.094   6.625   2.848  0.0898 -0.1870  0.4838
21130SOL    HW164831   5.111   6.719   2.842 -1.5505  0.2906  2.2624
21130SOL    HW264832   5.180   6.584   2.843  0.7821  1.3119 -1.1251
21131SOL     OW64833   4.448   7.966   2.663 -0.5796 -0.0143  0.2811
21131SOL    HW164834   4.464   7.980   2.756 -0.8016  0.5783  0.2378
21131SOL    HW264835   4.379   8.029   2.641  0.4737  0.8826 -0.5964
21132SOL     OW64836   6.960   5.356  11.398 -0.3316 -0.0745 -0.1839
21132SOL    HW164837   7.030   5.391  11.454 -0.1461 -2.1606  0.9732
21132SOL    HW264838   6.881   5.399  11.431 -0.1564 -0.8975  1.4076
21133SOL     OW64839   6.599   5.868  10.369  0.4253  0.3866  0.1580
21133SOL    HW164840   6.640   5.837  10.450 -0.6292  0.4063  0.7152
21133SOL    HW264841   6.529   5.805  10.352  1.3856 -0.3369 -1.4360
21134SOL     OW64842   0.498   4.818   2.365 -0.3422 -0.3979  0.3076
21134SOL    HW164843   0.460   4.875   2.298 -0.3894 -1.0683 -0.2486
21134SOL    HW264844   0.529   4.741   2.317  0.4423 -0.4940  0.9386
21135SOL     OW64845   2.855   2.832   2.051  0.7661  0.5287 -0.5224
21135SOL    HW164846   2.800   2.891   2.000 -2.0598  0.0818  1.8160
21135SOL    HW264847   2.827   2.744   2.025 -0.6182  0.2915  1.5346
21136SOL     OW64848   2.036   6.015   9.962  0.0584 -0.3679 -0.4949
21136SOL    HW164849   1.948   6.040   9.936  0.3576  1.1127 -0.1658
21136SOL    HW264850   2.024   5.941  10.021 -0.9090 -0.6315 -0.9975
21137SOL     OW64851   5.209   3.399   1.800 -0.1416  0.1338  0.4764
21137SOL    HW164852   5.249   3.347   1.870  2.1939 -0.3871 -1.1117
21137SOL    HW264853   5.245   3.487   1.811 -0.0809  0.1465  0.2002
21138SOL     OW64854   6.580   0.750   2.902  0.0148 -0.6350  0.0453
21138SOL    HW164855   6.557   0.695   2.827 -1.7742 -0.1242  0.1758
21138SOL    HW264856   6.588   0.838   2.865  0.7286 -0.6316  0.1980
21139SOL     OW64857   7.332   5.019   5.061  0.6013 -0.5310 -0.1865
21139SOL    HW164858   7.287   5.103   5.074  1.3990  0.3489 -2.4883
21139SOL    HW264859   7.425   5.040   5.073  0.7545 -1.3120  0.0749
21140SOL     OW64860   6.547   3.839  11.631 -0.4229  0.4889  0.2901
21140SOL    HW164861   6.515   3.873  11.715  1.6080  2.2460  0.4637
21140SOL    HW264862   6.492   3.881  11.565 -0.9420  0.4362  0.6873
21141SOL     OW64863   2.786   5.108  11.772 -0.6247  0.6446  0.2979
21141SOL    HW164864   2.696   5.102  11.804 -0.2191  0.6843  1.5120
21141SOL    HW264865   2.794   5.196  11.737 -1.2840  0.3726 -0.5684
21142SOL     OW64866   6.949   3.839   9.941  0.5018 -0.3424 -0.4265
21142SOL    HW164867   6.886   3.907   9.966 -1.2833 -1.5228 -1.5350
21142SOL    HW264868   7.035   3.878   9.961 -0.5368  1.2266  1.3410
21143SOL     OW64869   0.581   1.902   8.084 -0.4007 -0.2888  0.1161
21143SOL    HW164870   0.499   1.931   8.124 -0.9153  0.9734 -1.7480
21143SOL    HW264871   0.649   1.943   8.138 -1.0482  0.4017  0.4200
21144SOL     OW64872   2.693   0.213   4.953  0.3328  0.1291 -0.0528
21144SOL    HW164873   2.680   0.297   4.908 -1.2998  0.7668  1.4792
21144SOL    HW264874   2.627   0.155   4.914  2.0181 -0.7798 -1.7192
21145SOL     OW64875   7.924   1.639   4.051  0.1390 -0.2247  0.6364
21145SOL    HW164876   7.967   1.572   3.998 -1.6336 -0.2580 -0.8924
21145SOL    HW264877   7.935   1.719   4.000 -3.8197 -0.6943 -1.3702
21146SOL     OW64878   6.187   6.384   7.515 -0.7061 -0.2798 -0.2630
21146SOL    HW164879   6.115   6.327   7.489  0.6120 -0.6341 -3.5862
21146SOL    HW264880   6.214   6.428   7.435  1.9486  0.8130  1.0911
21147SOL     OW64881   4.634   4.158   2.431 -0.2804 -0.2922  0.1047
21147SOL    HW164882   4.700   4.113   2.378  1.3933 -1.5600  3.0422
21147SOL    HW264883   4.589   4.088   2.477 -0.4599  0.7988  1.6701
21148SOL     OW64884   6.310   0.133   6.130 -0.2577 -0.3822  0.0386
21148SOL    HW164885   6.366   0.095   6.198 -0.8844 -1.3403  0.0528
21148SOL    HW264886   6.369   0.152   6.057  0.0708 -1.6579 -0.0650
21149SOL     OW64887   1.089   6.903  10.484 -0.4437  0.0924 -0.1176
21149SOL    HW164888   1.023   6.965  10.453 -0.3235  0.1678 -0.2215
21149SOL    HW264889   1.054   6.870  10.567 -1.1585 -0.7255 -0.7338
21150SOL     OW64890   7.741   0.652  10.745 -0.0184 -0.3356 -0.6057
21150SOL    HW164891   7.726   0.745  10.733  2.1307  0.0695 -0.6886
21150SOL    HW264892   7.787   0.646  10.829 -1.8954 -1.5635  0.4009
21151SOL     OW64893   1.958   6.470   6.796  0.3187  0.3965 -0.4498
21151SOL    HW164894   2.048   6.485   6.823 -0.0367  0.8451  0.5021
21151SOL    HW264895   1.908   6.462   6.877 -0.4621 -0.1209 -0.9576
21152SOL     OW64896   3.805   5.649   3.891 -0.0922  0.3797 -0.0978
21152SOL    HW164897   3.800   5.554   3.903  1.5862  0.4471  1.4867
21152SOL    HW264898   3.734   5.684   3.946 -1.2327  0.0662 -1.3003
21153SOL     OW64899   2.430   2.840   6.369  0.1665 -0.0414 -0.1855
21153SOL    HW164900   2.342   2.878   6.361  0.2052  0.4232  1.2541
21153SOL    HW264901   2.465   2.877   6.450  0.6507 -2.3011  0.7235
21154SOL     OW64902   4.751   0.508   5.936  0.1074 -0.4476 -0.2229
21154SOL    HW164903   4.821   0.565   5.968  0.1925 -0.8773  0.3656
21154SOL    HW264904   4.796   0.441   5.885 -0.0147  0.1457 -1.1333
21155SOL     OW64905   3.964   6.532   4.465  0.1437 -0.1608  0.1072
21155SOL    HW164906   3.959   6.515   4.560  0.2243 -0.7745  0.0105
21155SOL    HW264907   4.035   6.595   4.456  2.4446 -2.5233  0.2028
21156SOL     OW64908   4.681   6.246   7.033  0.0644  0.3679  0.6641
21156SOL    HW164909   4.758   6.247   6.976  0.2485  0.4902  0.9128
21156SOL    HW264910   4.665   6.153   7.050  0.1146  0.3391  0.5524
21157SOL     OW64911   5.806   0.416   6.838  0.2985  0.6441  0.8257
21157SOL    HW164912   5.876   0.358   6.868  1.1111 -0.2460 -2.4816
21157SOL    HW264913   5.728   0.361   6.839  0.7600 -0.0912 -0.7468
21158SOL     OW64914   5.809   1.267  10.875 -0.0169 -0.2050  0.0709
21158SOL    HW164915   5.742   1.210  10.911 -0.3729 -0.1859 -0.5375
21158SOL    HW264916   5.769   1.304  10.796 -0.2646  1.8756  1.1260
21159SOL     OW64917   3.168   3.276   7.212 -0.1909  0.5449  0.0816
21159SOL    HW164918   3.120   3.349   7.173  0.9919  0.6926 -1.1896
21159SOL    HW264919   3.214   3.314   7.287 -1.3315  0.5868  0.7857
21160SOL     OW64920   2.572   1.384   0.841  0.4204 -0.7031 -0.2067
21160SOL    HW164921   2.604   1.448   0.777 -1.0770  0.4708  0.1549
21160SOL    HW264922   2.558   1.435   0.921 -1.2144 -1.3698 -0.0342
21161SOL     OW64923   1.982   5.858   0.605  0.9412  0.5641  0.0322
21161SOL    HW164924   2.039   5.877   0.679  1.3597  0.0569 -0.1513
21161SOL    HW264925   2.022   5.782   0.563  0.6182  0.7502 -0.6232
21162SOL     OW64926   1.483   2.867   4.219 -0.2574  0.3682 -0.2088
21162SOL    HW164927   1.549   2.882   4.152  1.4001 -0.0304  1.2658
21162SOL    HW264928   1.459   2.775   4.210 -0.1513  0.3540 -0.3369
21163SOL     OW64929   2.918   7.781   1.358  0.6114 -0.5929 -0.7412
21163SOL    HW164930   2.929   7.851   1.292  0.4858 -0.5461 -0.7134
21163SOL    HW264931   2.985   7.799   1.423 -0.4549  0.4870  0.1257
21164SOL     OW64932   2.837   3.095   6.659 -0.1817 -0.1705 -0.1511
21164SOL    HW164933   2.845   3.044   6.739 -0.4258  0.1865  0.1015
21164SOL    HW264934   2.810   3.032   6.592  2.0016 -0.8880 -0.4279
21165SOL     OW64935   1.819   1.702  11.507  0.3745  0.3728  0.1333
21165SOL    HW164936   1.908   1.668  11.515 -0.2862 -1.0949  1.8647
21165SOL    HW264937   1.771   1.634  11.461  0.0520  1.0269 -0.5230
21166SOL     OW64938   5.811   6.560   9.127 -0.5840  0.2693  0.0427
21166SOL    HW164939   5.835   6.642   9.085  1.4119 -0.8144 -1.0894
21166SOL    HW264940   5.716   6.556   9.120 -0.6095  1.8927 -0.9607
21167SOL     OW64941   5.644   2.978  10.925 -0.3574 -0.1111 -0.4210
21167SOL    HW164942   5.593   3.020  10.995  0.5895  1.6611 -0.7575
21167SOL    HW264943   5.660   2.889  10.958 -0.0349  0.6415  1.5787
21168SOL     OW64944   2.241   3.095   0.854 -0.0728 -0.5500 -0.1374
21168SOL    HW164945   2.165   3.037   0.852 -0.3454 -0.2036  0.0321
21168SOL    HW264946   2.232   3.144   0.935 -0.3033  0.3287 -0.6834
21169SOL     OW64947   1.584   3.963   3.144  0.5043 -0.2278  0.6820
21169SOL    HW164948   1.524   3.904   3.190  0.8371 -0.4407  0.8452
21169SOL    HW264949   1.663   3.964   3.198  0.8924 -0.4655  0.1278
21170SOL     OW64950   3.403   5.087   8.780 -0.4286  0.0796  0.6397
21170SOL    HW164951   3.481   5.038   8.807  0.8851  1.4634 -0.4674
21170SOL    HW264952   3.375   5.132   8.859  0.5936  0.4483  0.8104
21171SOL     OW64953   2.727   4.525   5.025  0.0792  0.0648 -0.1792
21171SOL    HW164954   2.822   4.530   5.012 -0.1456  0.2637 -1.8919
21171SOL    HW264955   2.692   4.500   4.940 -1.2533 -2.3249  0.9811
21172SOL     OW64956   1.332   0.429   7.849  0.5783  0.3882  0.3436
21172SOL    HW164957   1.295   0.346   7.820  0.4622  1.0299 -1.5117
21172SOL    HW264958   1.425   0.413   7.858  0.5300  0.0030  0.1712
21173SOL     OW64959   1.959   2.468   4.602 -0.6428 -0.3218 -0.4033
21173SOL    HW164960   1.878   2.455   4.650 -2.0426  1.5560 -2.0566
21173SOL    HW264961   1.939   2.439   4.513  0.1074  1.1119 -1.0878
21174SOL     OW64962   0.561   1.832   3.965 -0.4400 -0.5269  0.5895
21174SOL    HW164963   0.633   1.862   4.019  0.0831  0.4975 -0.6199
21174SOL    HW264964   0.603   1.800   3.885 -1.3383  1.6529 -0.8565
21175SOL     OW64965   3.359   6.225   2.028 -0.1428  0.9500 -0.1990
21175SOL    HW164966   3.386   6.144   1.986 -0.0144  0.8613  0.0529
21175SOL    HW264967   3.310   6.272   1.961 -2.4015 -0.4389  0.3408
21176SOL     OW64968   2.633   1.947   7.934  0.4354  0.4143  0.1865
21176SOL    HW164969   2.713   1.934   7.883  0.7645  2.3474  0.1477
21176SOL    HW264970   2.564   1.908   7.880  0.9296  1.4761 -1.2609
21177SOL     OW64971   2.955   3.162   1.722  0.2005  0.1516 -0.0160
21177SOL    HW164972   2.892   3.232   1.707 -0.0548  0.6039  2.6396
21177SOL    HW264973   2.909   3.082   1.699 -0.6390  0.6269 -0.0108
21178SOL     OW64974   7.169   0.634  11.252  0.0268  0.8099  0.0102
21178SOL    HW164975   7.111   0.579  11.305  0.9137 -0.5859 -0.3858
21178SOL    HW264976   7.245   0.649  11.309  0.9936 -0.7159 -0.8056
21179SOL     OW64977   7.448   1.247   6.723  0.3515 -0.1470 -0.0823
21179SOL    HW164978   7.507   1.196   6.667 -0.9570  0.2666 -1.9449
21179SOL    HW264979   7.361   1.213   6.703 -0.1680 -0.0330  1.8308
21180SOL     OW64980   2.897   6.699   7.127 -0.0661 -0.1472  0.4982
21180SOL    HW164981   2.868   6.631   7.188  0.1125  0.8286  1.7211
21180SOL    HW264982   2.938   6.651   7.055 -3.9157 -1.5977 -1.0097
21181SOL     OW64983   6.616   6.874  10.829 -0.1013 -0.2216 -0.1969
21181SOL    HW164984   6.590   6.853  10.739 -0.3615 -0.2722 -0.1128
21181SOL    HW264985   6.647   6.791  10.865 -0.2877 -0.2700 -0.1453
21182SOL     OW64986   1.632   5.091  11.168  0.0937  0.5866  0.1409
21182SOL    HW164987   1.639   5.041  11.087  2.1016 -0.5967  0.9637
21182SOL    HW264988   1.650   5.027  11.237  2.3784  2.2982  1.2786
21183SOL     OW64989   4.464   2.378   2.599 -0.1688  0.5062  0.1503
21183SOL    HW164990   4.462   2.306   2.663  0.2286  0.7801  0.4782
21183SOL    HW264991   4.557   2.387   2.577 -0.2351  0.8325  0.0034
21184SOL     OW64992   1.036   4.243  10.063  0.7217 -0.8346 -0.0747
21184SOL    HW164993   0.988   4.175  10.110  1.2749 -0.1664  1.5694
21184SOL    HW264994   1.025   4.321  10.117  1.2192  0.0420 -1.1997
21185SOL     OW64995   1.822   7.935   7.249 -0.2152  0.5542 -0.1011
21185SOL    HW164996   1.797   7.943   7.157 -0.3141  2.8445  0.0555
21185SOL    HW264997   1.766   7.867   7.284 -0.2299 -0.3063 -1.7102
21186SOL     OW64998   2.984   2.966   4.879  0.3467  0.2752 -0.1890
21186SOL    HW164999   3.068   3.003   4.851  1.0066 -1.1905 -0.2278
21186SOL    HW265000   3.002   2.873   4.892 -0.8017  0.2898  1.7690
21187SOL     OW65001   7.798   7.422   6.912 -0.0511  0.1133  0.3677
21187SOL    HW165002   7.842   7.394   6.832  0.7314  1.3452  0.3371
21187SOL    HW265003   7.866   7.417   6.979 -0.2403  0.6843  0.6068
21188SOL     OW65004   0.149   0.546  11.879  0.2931  0.7586 -0.1331
21188SOL    HW165005   0.145   0.478  11.946  1.2092  0.4793 -0.3347
21188SOL    HW265006   0.101   0.620  11.916 -2.0016 -0.4560 -0.5005
21189SOL     OW65007   5.672   3.954  11.625 -0.7484  0.3448  0.4854
21189SOL    HW165008   5.636   3.886  11.682 -0.8109  1.3003  1.6123
21189SOL    HW265009   5.753   3.981  11.668 -0.4786  0.6598 -0.2067
21190SOL     OW65010   4.666   6.290   4.188 -0.3222 -0.1126  0.0718
21190SOL    HW165011   4.701   6.308   4.275  0.5476  1.0643 -0.4969
21190SOL    HW265012   4.688   6.198   4.172  1.6177  0.2985  0.1652
21191SOL     OW65013   4.295   7.662   0.849 -0.3642 -0.3003 -0.0739
21191SOL    HW165014   4.199   7.655   0.855 -0.3855  0.3343  0.4307
21191SOL    HW265015   4.312   7.756   0.852  0.4034 -0.4568  1.9924
21192SOL     OW65016   4.237   5.126   1.807 -0.6042 -0.6284 -0.5558
21192SOL    HW165017   4.142   5.141   1.811 -0.6569 -1.0281 -0.2478
21192SOL    HW265018   4.274   5.214   1.809 -0.7611 -0.2938  5.3619
21193SOL     OW65019   5.542   1.972   9.293 -0.4413  0.2919 -0.2799
21193SOL    HW165020   5.461   2.022   9.308 -1.0465 -0.3493 -1.2622
21193SOL    HW265021   5.515   1.880   9.296  0.2230  0.0706 -0.7508
21194SOL     OW65022   0.016   4.591   1.054 -0.2233 -0.1172  0.6478
21194SOL    HW165023   0.100   4.596   1.009 -0.6177 -0.1179 -0.1064
21194SOL    HW265024  -0.043   4.550   0.990 -1.4778  2.3571  0.0914
21195SOL     OW65025   4.646   7.929   0.114  0.7034  0.1886  0.0082
21195SOL    HW165026   4.551   7.940   0.115  0.4117 -1.8217 -0.0275
21195SOL    HW265027   4.671   7.923   0.206  0.4359 -1.4407  0.0139
21196SOL     OW65028   4.440   4.319   8.821  0.3089 -0.0685  0.2087
21196SOL    HW165029   4.374   4.250   8.816  0.0739  0.0415  1.5021
21196SOL    HW265030   4.511   4.289   8.764 -1.4551  0.5150 -2.4869
21197SOL     OW65031   0.035   3.709   3.092  0.0627 -0.4866 -0.1756
21197SOL    HW165032   0.066   3.799   3.079  1.6899 -0.6198  2.2465
21197SOL    HW265033   0.113   3.655   3.078 -0.5711 -1.4115 -0.1880
21198SOL     OW65034   2.018   6.958   9.705 -0.4791 -0.0577 -0.3667
21198SOL    HW165035   1.992   7.034   9.757 -0.0726 -0.0628 -0.1473
21198SOL    HW265036   1.942   6.937   9.652 -1.2289 -0.5998  0.8786
21199SOL     OW65037   5.666   1.710  11.113 -0.1704  0.2327 -0.1247
21199SOL    HW165038   5.635   1.800  11.124 -0.6936  0.2801 -1.7539
21199SOL    HW265039   5.751   1.708  11.157 -1.5970  0.5710  2.9226
21200SOL     OW65040   4.885   7.913   3.155 -0.3055  0.2570 -0.0328
21200SOL    HW165041   4.937   7.928   3.234 -0.8323  0.6387  0.2465
21200SOL    HW265042   4.798   7.947   3.176 -0.4293  0.4405 -0.8045
21201SOL     OW65043   3.395   4.198   7.473 -0.5268 -0.7729 -0.6654
21201SOL    HW165044   3.309   4.174   7.507 -0.0166 -0.8833  0.6166
21201SOL    HW265045   3.386   4.290   7.446 -1.4234 -1.2020 -1.9287
21202SOL     OW65046   2.453   0.876   0.551 -0.2443 -0.0692 -0.3518
21202SOL    HW165047   2.463   0.899   0.459  3.1043  1.4807  0.2678
21202SOL    HW265048   2.494   0.790   0.559 -0.7878 -0.3331 -0.3106
21203SOL     OW65049   7.335   2.730   5.456  0.4648 -0.7762  0.0034
21203SOL    HW165050   7.309   2.809   5.504  1.0046 -0.9643  0.6257
21203SOL    HW265051   7.293   2.658   5.504 -0.0077 -0.8739 -0.5468
21204SOL     OW65052   6.770   6.614   1.988 -0.3667  0.6825  0.3139
21204SOL    HW165053   6.845   6.577   1.940  0.7468  0.3459  2.2248
21204SOL    HW265054   6.702   6.547   1.982 -0.6759  1.0987 -1.6627
21205SOL     OW65055   1.271   4.968   0.575 -0.2878  0.0871  0.2298
21205SOL    HW165056   1.217   5.047   0.566 -1.0745 -0.1786  2.1897
21205SOL    HW265057   1.359   5.002   0.593 -0.5703  0.5148  0.8249
21206SOL     OW65058   7.423   7.623   4.613  0.0379 -0.0136 -0.1764
21206SOL    HW165059   7.451   7.713   4.630 -0.1844 -0.1254  0.8189
21206SOL    HW265060   7.342   7.632   4.562 -0.0916  0.3464  0.0916
21207SOL     OW65061   7.446   0.148   6.629 -0.2074 -0.2150 -0.4191
21207SOL    HW165062   7.398   0.145   6.711 -0.6825 -1.9846 -0.7293
21207SOL    HW265063   7.420   0.231   6.589  1.7024  1.8125  2.1441
21208SOL     OW65064   5.584   7.393   6.417  0.2006  0.4578  0.2369
21208SOL    HW165065   5.499   7.433   6.435 -0.1814 -0.0887 -0.3659
21208SOL    HW265066   5.633   7.462   6.372  0.0698  0.7580  0.5461
21209SOL     OW65067   1.692   1.959   5.436 -0.2640 -0.4283  0.3146
21209SOL    HW165068   1.758   1.908   5.389 -0.0344 -0.8484  1.0800
21209SOL    HW265069   1.729   2.047   5.443  0.5288 -0.8267  1.3355
21210SOL     OW65070   3.972   5.234   6.284 -0.2660 -0.1916 -0.3055
21210SOL    HW165071   3.961   5.309   6.342  1.3365 -1.1576  1.3420
21210SOL    HW265072   3.926   5.162   6.327  0.6989 -0.8548 -0.3546
21211SOL     OW65073   5.286   4.293   0.720  0.2610 -0.1735 -0.1337
21211SOL    HW165074   5.241   4.304   0.635 -0.7993 -0.6676  0.3380
21211SOL    HW265075   5.345   4.368   0.725 -1.0740  0.9592 -0.4631
21212SOL     OW65076   2.343   0.199   6.361  0.1439 -0.0830 -0.1084
21212SOL    HW165077   2.286   0.266   6.399 -0.7515 -0.0755 -1.4280
21212SOL    HW265078   2.400   0.246   6.302 -0.1628 -0.4060 -0.6739
21213SOL     OW65079   4.110   7.604   2.883 -0.3268 -0.0385  0.2737
21213SOL    HW165080   4.148   7.659   2.951  1.5572  0.0337 -0.7632
21213SOL    HW265081   4.105   7.517   2.923  0.5902  0.0450  0.5971
21214SOL     OW65082   3.113   0.990   1.606  0.4222  0.0070 -0.0820
21214SOL    HW165083   3.195   1.006   1.559 -0.0492 -0.5298 -1.1355
21214SOL    HW265084   3.053   1.056   1.573 -0.3247 -1.2382 -1.3491
21215SOL     OW65085   3.463   2.361   0.125 -0.1502  0.3085  0.9067
21215SOL    HW165086   3.395   2.300   0.152  0.4745 -0.2049  1.3491
21215SOL    HW265087   3.545   2.312   0.134  0.1752  0.3643 -1.1459
21216SOL     OW65088   6.012   3.887   8.342 -0.0400  0.5536 -0.0623
21216SOL    HW165089   5.946   3.956   8.343 -1.2544 -0.5215 -1.4192
21216SOL    HW265090   6.084   3.924   8.290  0.1091  1.4393  0.7544
21217SOL     OW65091   4.374   1.058   1.156  0.6200  0.1289  0.0849
21217SOL    HW165092   4.415   1.064   1.242  0.2694  0.8401  0.2160
21217SOL    HW265093   4.327   1.141   1.147  0.1915 -0.1788 -0.5552
21218SOL     OW65094   6.264   2.858  10.264 -0.3096 -0.3610  0.3799
21218SOL    HW165095   6.268   2.924  10.333  0.7888  0.5805 -0.5315
21218SOL    HW265096   6.186   2.880  10.214 -0.4716 -0.3310  0.6464
21219SOL     OW65097   7.049   1.576   0.914 -0.5976 -0.4013 -0.0219
21219SOL    HW165098   7.142   1.594   0.898 -0.6153 -0.6161 -0.3912
21219SOL    HW265099   7.017   1.539   0.831 -0.7395 -1.3964  0.4529
21220SOL     OW65100   5.670   0.101  11.680 -0.3369 -0.0753 -0.2535
21220SOL    HW165101   5.648   0.044  11.606  0.4053  0.2442 -0.7248
21220SOL    HW265102   5.643   0.188  11.652  0.4457  0.1344 -0.3733
21221SOL     OW65103   3.476   6.576   3.104 -0.2400 -0.0806  0.3999
21221SOL    HW165104   3.437   6.601   3.188  1.0335  0.3712  0.8793
21221SOL    HW265105   3.556   6.628   3.099  0.2628 -0.9261 -0.5900
21222SOL     OW65106   6.429   4.406   3.104  0.1454 -0.1372 -0.3646
21222SOL    HW165107   6.470   4.492   3.113  1.2969 -0.7553  0.5450
21222SOL    HW265108   6.490   4.356   3.050  0.4295 -0.9566  0.6926
21223SOL     OW65109   2.737   1.388   8.914  0.0639  0.3073  0.2922
21223SOL    HW165110   2.642   1.385   8.917  0.0506 -1.2499 -0.6520
21223SOL    HW265111   2.766   1.327   8.982  0.3910  0.8128  0.6119
21224SOL     OW65112   4.542   0.121  12.287  0.1579  0.3590 -0.3482
21224SOL    HW165113   4.452   0.121  12.319 -0.3351  0.0762 -1.6715
21224SOL    HW265114   4.563   0.029  12.273  0.3325  0.4754 -0.8798
21225SOL     OW65115   6.079   2.306   9.822 -0.3056  0.0761  0.7932
21225SOL    HW165116   6.164   2.263   9.827 -0.3298  0.1073  1.8306
21225SOL    HW265117   6.084   2.362   9.745  0.0197 -1.1585 -0.1012
21226SOL     OW65118   3.133   3.435   4.171 -0.6360  0.2085  0.2842
21226SOL    HW165119   3.108   3.399   4.086  0.8697  0.4114 -0.2686
21226SOL    HW265120   3.172   3.362   4.218  0.8911  0.6881 -0.2019
21227SOL     OW65121   3.479   1.019   7.276  0.0144 -0.5402  0.0433
21227SOL    HW165122   3.533   1.001   7.353 -1.1996 -2.1415  0.6007
21227SOL    HW265123   3.428   1.096   7.299  1.6266  0.6664 -0.2861
21228SOL     OW65124   7.424   0.838  11.168 -0.4465 -0.1423 -0.1429
21228SOL    HW165125   7.384   0.820  11.253  0.5022  0.1604  0.3828
21228SOL    HW265126   7.411   0.758  11.117  1.1907 -1.2968  1.1632
21229SOL     OW65127   0.618   2.982   9.356  0.6560  0.1692  0.2764
21229SOL    HW165128   0.558   2.996   9.283  0.1500 -1.7777  0.2431
21229SOL    HW265129   0.685   3.050   9.347  0.7261 -0.1405 -2.1365
21230SOL     OW65130   3.744   1.234   1.301 -0.0131  0.3931 -0.4566
21230SOL    HW165131   3.731   1.238   1.396 -1.0830 -0.1815 -0.5535
21230SOL    HW265132   3.782   1.318   1.277 -1.0371  1.0897  0.3092
21231SOL     OW65133   4.862   1.898  11.962 -0.1537 -0.2819 -0.5667
21231SOL    HW165134   4.835   1.858  12.045 -0.9992 -0.7998 -1.0712
21231SOL    HW265135   4.812   1.979  11.957 -0.2582 -0.3514 -0.6589
21232SOL     OW65136   4.036   0.048   5.251  0.1447 -0.4685 -0.2593
21232SOL    HW165137   3.991   0.079   5.330  0.0326 -1.2816 -0.0018
21232SOL    HW265138   4.117   0.008   5.283  0.9770  0.7896 -0.7056
21233SOL     OW65139   3.287   5.121   3.984 -0.1505 -0.3168 -0.2941
21233SOL    HW165140   3.340   5.051   3.946  2.1109  0.7690  0.6826
21233SOL    HW265141   3.291   5.106   4.078 -0.4284  0.5769 -0.1317
21234SOL     OW65142   3.797   7.322   7.540  0.4046 -0.3445 -0.2728
21234SOL    HW165143   3.810   7.354   7.451  2.8757 -2.6468 -0.8369
21234SOL    HW265144   3.882   7.330   7.582 -0.1580 -1.3861  1.1737
21235SOL     OW65145   5.271   2.134   9.333 -0.7311 -0.2762 -0.1681
21235SOL    HW165146   5.328   2.195   9.285 -2.4810  1.1304 -0.5914
21235SOL    HW265147   5.188   2.181   9.340 -1.9468 -2.3745  0.1323
21236SOL     OW65148   6.533   2.147  10.229 -0.2493 -0.6991 -0.1622
21236SOL    HW165149   6.522   2.208  10.302 -2.1375 -1.9105  0.6401
21236SOL    HW265150   6.627   2.126  10.229  0.3007  1.5367  0.0348
21237SOL     OW65151   2.824   0.560   2.078 -0.2089 -0.5512  0.1825
21237SOL    HW165152   2.889   0.540   2.145 -0.4426 -0.4048  0.4538
21237SOL    HW265153   2.777   0.478   2.063  1.1952 -1.1406 -1.2947
21238SOL     OW65154   3.101   3.776   0.568 -0.4026 -0.0171 -0.2926
21238SOL    HW165155   3.131   3.719   0.639 -0.4310 -0.1219 -0.3626
21238SOL    HW265156   3.174   3.778   0.506 -0.3993  0.0276 -0.2870
21239SOL     OW65157   2.067   3.463  12.210  0.7052 -0.2458  0.8149
21239SOL    HW165158   2.016   3.523  12.264 -0.0182 -0.7238  0.6705
21239SOL    HW265159   2.018   3.458  12.128  2.0250  0.8445 -0.0993
21240SOL     OW65160   2.772   3.306   9.290 -0.1664 -0.0577  0.3990
21240SOL    HW165161   2.842   3.277   9.231 -1.6713 -2.2024 -0.4808
21240SOL    HW265162   2.735   3.382   9.246  0.7332  0.2740  0.1833
21241SOL     OW65163   0.394   4.317   5.202 -0.0554 -0.0507  0.3577
21241SOL    HW165164   0.483   4.300   5.169  0.0525 -0.0606  0.6526
21241SOL    HW265165   0.382   4.251   5.271  0.7816  1.7196  2.2943
21242SOL     OW65166   2.693   7.712   9.317 -0.2848  0.2465 -0.5480
21242SOL    HW165167   2.782   7.739   9.292  0.7843 -0.7019  1.9386
21242SOL    HW265168   2.678   7.632   9.268  1.4119 -1.1207  1.0253
21243SOL     OW65169   0.421   6.124   4.598 -0.0930 -0.2758 -0.2103
21243SOL    HW165170   0.487   6.066   4.562  1.0992  1.4978 -1.0318
21243SOL    HW265171   0.470   6.197   4.635 -1.4688 -0.2647  1.8149
21244SOL     OW65172   0.111   4.892   6.520 -0.0491 -0.1114 -0.0489
21244SOL    HW165173   0.176   4.948   6.563 -1.0062  0.5300  0.5877
21244SOL    HW265174   0.158   4.855   6.445  1.5174 -0.8588  1.2197
21245SOL     OW65175   5.032   6.871   2.468 -0.3881 -0.1271  0.1920
21245SOL    HW165176   4.943   6.836   2.459 -0.0059 -0.8656 -1.0177
21245SOL    HW265177   5.089   6.798   2.444  0.4848  0.9063 -1.0410
21246SOL     OW65178   0.487   0.162  11.914 -0.4826 -0.1080 -0.1044
21246SOL    HW165179   0.399   0.127  11.898 -0.1441 -0.1254 -2.1998
21246SOL    HW265180   0.527   0.100  11.975 -1.2345 -1.2110 -0.7029
21247SOL     OW65181   7.178   7.284   3.880 -0.1351  0.0955  0.2276
21247SOL    HW165182   7.200   7.291   3.973  1.0022  0.5997 -0.0571
21247SOL    HW265183   7.115   7.355   3.864 -0.7642 -0.3475  0.7276
21248SOL     OW65184   4.134   5.398   0.547  0.2771 -0.1839  0.8315
21248SOL    HW165185   4.069   5.360   0.487  1.1359 -0.9836  0.3802
21248SOL    HW265186   4.083   5.430   0.621 -0.6849 -0.2909  0.2297
21249SOL     OW65187   2.261   6.734   9.258 -0.5131  0.0421  0.0552
21249SOL    HW165188   2.290   6.822   9.279 -0.3961  0.1239 -0.4215
21249SOL    HW265189   2.265   6.686   9.340 -1.0829  0.6188  0.4282
21250SOL     OW65190   0.037   6.128  12.011  0.0485  0.1281  0.2445
21250SOL    HW165191   0.057   6.075  11.934  1.4820 -0.6990  1.1373
21250SOL    HW265192   0.049   6.068  12.085 -0.0947  1.2152  1.1768
21251SOL     OW65193   3.532   1.455   7.368 -0.0069  0.1033 -0.5647
21251SOL    HW165194   3.522   1.462   7.463 -0.5887  1.4070 -0.6904
21251SOL    HW265195   3.625   1.437   7.355  0.2818  0.9351  0.2274
21252SOL     OW65196   0.667   2.177   4.107  0.6458  0.3497  0.4627
21252SOL    HW165197   0.652   2.259   4.154  2.5963 -0.0941  2.0030
21252SOL    HW265198   0.728   2.129   4.162  1.2293 -1.2324 -1.4436
21253SOL     OW65199   3.605   4.495  11.647  0.0135  0.0969 -0.2667
21253SOL    HW165200   3.677   4.451  11.691 -0.3277 -0.1489  0.0449
21253SOL    HW265201   3.617   4.474  11.554  0.0772 -0.3243 -0.1641
21254SOL     OW65202   3.243   2.940   4.559 -0.7072  0.0426  0.0619
21254SOL    HW165203   3.224   3.001   4.630 -0.4740 -0.7870  0.8471
21254SOL    HW265204   3.246   2.995   4.481 -3.9559  0.6048  0.1909
21255SOL     OW65205   6.356   7.951   1.061 -0.3549 -0.2165 -0.3157
21255SOL    HW165206   6.305   7.923   1.136  0.5499  0.1202  0.4477
21255SOL    HW265207   6.341   8.045   1.055  0.2214 -0.0971 -0.0273
21256SOL     OW65208   0.905   5.458   9.811  0.0916 -0.2022 -0.2368
21256SOL    HW165209   0.843   5.529   9.831 -1.1704 -1.6760  1.3253
21256SOL    HW265210   0.986   5.485   9.854  0.3692  1.3470 -1.6009
21257SOL     OW65211   0.148   3.623   8.272  0.4943 -0.3539 -0.4684
21257SOL    HW165212   0.132   3.699   8.217 -0.5411  1.1442  1.7395
21257SOL    HW265213   0.243   3.623   8.286  0.7793 -0.8065 -2.2411
21258SOL     OW65214   4.758   7.749   6.758  0.0630  0.6221 -0.2195
21258SOL    HW165215   4.850   7.772   6.746 -0.2173  1.7573 -0.3034
21258SOL    HW265216   4.750   7.662   6.719  1.3998 -0.1066  1.0121
21259SOL     OW65217   0.194   2.851   2.368  0.2283  0.3712 -0.1912
21259SOL    HW165218   0.198   2.910   2.443  0.8219  1.4951 -1.0731
21259SOL    HW265219   0.284   2.824   2.353 -0.0602 -0.9384  0.3125
21260SOL     OW65220   6.899   3.079  12.164 -0.2756 -0.3947 -0.1764
21260SOL    HW165221   6.922   3.172  12.153 -0.9433 -0.2164 -0.1111
21260SOL    HW265222   6.983   3.033  12.161  0.2811  0.3913  1.8474
21261SOL     OW65223   4.726   2.718   0.423 -0.5209 -0.1805  0.5930
21261SOL    HW165224   4.673   2.670   0.487 -0.2543 -0.6047  0.4986
21261SOL    HW265225   4.776   2.650   0.378 -1.1197  0.0514 -0.4619
21262SOL     OW65226   4.933   3.930   5.709  0.0953  0.1256 -0.7792
21262SOL    HW165227   4.956   3.863   5.773 -3.0595  0.3257  0.7613
21262SOL    HW265228   4.924   4.010   5.760 -0.4413  0.7647 -1.8390
21263SOL     OW65229   0.456   7.317   7.289  0.2904 -0.1953 -0.2933
21263SOL    HW165230   0.398   7.374   7.240  0.2430 -0.7117 -0.8479
21263SOL    HW265231   0.419   7.315   7.377 -0.6724 -0.6930 -0.6902
21264SOL     OW65232   2.233   2.305   4.348 -0.1445  0.2524 -0.0902
21264SOL    HW165233   2.151   2.269   4.381 -0.4225  2.1552  1.4612
21264SOL    HW265234   2.224   2.400   4.359  1.3982  0.6707 -1.9775
21265SOL     OW65235   7.185   1.499   4.138  0.1489  0.4677 -0.0265
21265SOL    HW165236   7.254   1.566   4.142  0.2365  0.3385  0.7554
21265SOL    HW265237   7.230   1.417   4.160 -0.5685  0.6352  2.2993
21266SOL     OW65238   1.415   6.912   9.637  0.1100 -0.1765 -0.0220
21266SOL    HW165239   1.486   6.849   9.654  0.7710  0.5082 -0.1605
21266SOL    HW265240   1.372   6.878   9.558 -0.1035 -0.9260  0.4044
21267SOL     OW65241   4.180   6.633   0.210  0.6010  0.1370  0.4529
21267SOL    HW165242   4.140   6.559   0.165  0.2589 -0.0413  1.0470
21267SOL    HW265243   4.106   6.687   0.240  0.7175 -0.7343  2.4781
21268SOL     OW65244   5.328   3.187   6.452  0.0944  0.3973 -0.1100
21268SOL    HW165245   5.325   3.152   6.363 -0.3431 -1.1880  0.4937
21268SOL    HW265246   5.399   3.138   6.494  0.5952  1.4495  0.3025
21269SOL     OW65247   4.434   5.648   1.722  0.4127  0.4914  1.0415
21269SOL    HW165248   4.415   5.719   1.784  2.8534  2.4216 -0.2407
21269SOL    HW265249   4.528   5.635   1.727  0.1508 -2.1252  0.5687
21270SOL     OW65250   7.425   2.582   2.519  0.7074  0.0014  0.0021
21270SOL    HW165251   7.480   2.543   2.451  0.0341 -0.2902 -0.3777
21270SOL    HW265252   7.410   2.671   2.490  0.5295 -0.0827 -0.1605
21271SOL     OW65253   6.946   2.635  12.464 -0.3477  0.3816  0.1572
21271SOL    HW165254   6.965   2.544  12.445  0.9267  0.8070 -0.7707
21271SOL    HW265255   6.878   2.660  12.402  1.5902  0.9019 -1.8865
21272SOL     OW65256   5.581   4.538   4.327  0.2822  0.2739 -0.0933
21272SOL    HW165257   5.495   4.515   4.290 -0.1002 -0.2936  1.1201
21272SOL    HW265258   5.643   4.490   4.273 -0.0086  1.8588 -1.9627
21273SOL     OW65259   7.543   7.787  10.526  1.4323  0.3371 -0.2936
21273SOL    HW165260   7.457   7.779  10.486  0.3477 -0.3944  1.9994
21273SOL    HW265261   7.586   7.858  10.478 -0.2181  0.3407 -1.8471
21274SOL     OW65262   6.028   3.959   7.531  0.1563  0.1377  0.0301
21274SOL    HW165263   6.002   3.880   7.578  1.4477 -1.0514 -1.1800
21274SOL    HW265264   5.958   3.974   7.467  1.3406 -1.8950 -1.8689
21275SOL     OW65265   7.034   2.912   5.132  0.5723  0.4693  0.5123
21275SOL    HW165266   7.102   2.846   5.149 -0.0513 -1.4143 -3.2664
21275SOL    HW265267   6.968   2.896   5.199  1.6658 -0.9655  1.3022
21276SOL     OW65268   7.404   0.208   9.151 -0.3562  0.1419 -0.6717
21276SOL    HW165269   7.485   0.251   9.123 -1.0522  0.2807 -2.6595
21276SOL    HW265270   7.365   0.175   9.069 -1.3480 -1.6314  0.4428
21277SOL     OW65271   4.310   6.159  12.105 -0.0023  0.2354 -0.4210
21277SOL    HW165272   4.284   6.083  12.156 -2.0755  0.7134 -0.6585
21277SOL    HW265273   4.248   6.161  12.031  1.0494  1.2137 -1.3126
21278SOL     OW65274   2.706   7.933   8.672 -0.1147  0.5104 -0.1510
21278SOL    HW165275   2.796   7.903   8.661  0.3608  1.5530  0.7600
21278SOL    HW265276   2.698   8.006   8.611 -0.3815  0.3782 -0.2778
21279SOL     OW65277   1.206   0.042  11.452 -0.1044  0.3814 -0.4318
21279SOL    HW165278   1.243  -0.028  11.506  1.5500  2.1179  0.7946
21279SOL    HW265279   1.162   0.099  11.514 -2.2627  0.0093 -1.5316
21280SOL     OW65280   0.207   2.800   7.521 -0.0895  0.3135 -0.5336
21280SOL    HW165281   0.300   2.798   7.541  0.3498  2.9280 -1.9127
21280SOL    HW265282   0.172   2.872   7.573 -1.4559 -0.8789  0.2631
21281SOL     OW65283   0.674   6.493   7.107  0.1523 -0.5786  0.0588
21281SOL    HW165284   0.590   6.483   7.062 -0.4612  0.0895  0.9901
21281SOL    HW265285   0.687   6.410   7.152  0.2431 -0.8706 -0.5138
21282SOL     OW65286   1.059   2.955   9.052 -0.0898  0.4304  0.5681
21282SOL    HW165287   0.998   2.895   9.009  0.9991 -1.3138  1.3306
21282SOL    HW265288   1.102   3.002   8.980 -0.5762 -0.1170 -0.0924
21283SOL     OW65289   0.722   3.137   4.783  0.0675 -0.1357  0.2733
21283SOL    HW165290   0.678   3.057   4.754  0.1928 -0.1151  0.0242
21283SOL    HW265291   0.801   3.106   4.828  1.0151 -0.1183 -1.3116
21284SOL     OW65292   2.467   3.391   5.330 -0.4693 -0.1071  0.0489
21284SOL    HW165293   2.380   3.421   5.354  0.1801  0.0876  2.4473
21284SOL    HW265294   2.517   3.471   5.315 -0.1582 -0.1300  0.9031
21285SOL     OW65295   7.744   2.749  12.275  0.0609 -0.6413  0.1627
21285SOL    HW165296   7.768   2.658  12.256  0.0265 -0.6801  0.2973
21285SOL    HW265297   7.826   2.790  12.303  0.0893 -0.6136  0.0343
21286SOL     OW65298   0.859   3.952  11.575 -0.4664  0.0280  0.1729
21286SOL    HW165299   0.889   3.936  11.664  1.5384  1.4024 -0.2075
21286SOL    HW265300   0.842   4.046  11.571 -0.3986  0.0092 -0.9370
21287SOL     OW65301   6.289   1.626   3.948  0.4676  0.3799  0.3492
21287SOL    HW165302   6.211   1.582   3.914  0.8328 -0.2829  0.3523
21287SOL    HW265303   6.340   1.647   3.870  1.8113 -2.0807  0.4495
21288SOL     OW65304   3.783   0.555   7.175 -0.1781  0.3667  0.3722
21288SOL    HW165305   3.725   0.504   7.118 -0.2340  0.4360  0.3675
21288SOL    HW265306   3.742   0.642   7.180  0.6044  0.8278 -0.7158
21289SOL     OW65307   2.060   2.581   3.099 -0.5097 -0.1003 -0.2028
21289SOL    HW165308   2.047   2.491   3.069 -0.4616 -0.8537  1.8530
21289SOL    HW265309   2.138   2.576   3.155 -1.1692  0.9519  0.8587
21290SOL     OW65310   1.612   6.298   7.110 -0.0533  0.1983 -0.1008
21290SOL    HW165311   1.548   6.352   7.155 -0.0390 -0.6637  0.9980
21290SOL    HW265312   1.561   6.245   7.049 -0.1161  1.0737 -0.8393
21291SOL     OW65313   5.768   3.579   1.144  0.2680 -0.0653 -0.3340
21291SOL    HW165314   5.768   3.660   1.195 -0.0655  0.5873 -1.3219
21291SOL    HW265315   5.792   3.607   1.055  0.2490 -1.0717 -0.6730
21292SOL     OW65316   2.578   1.037   3.601 -0.3128 -0.1951 -0.2622
21292SOL    HW165317   2.563   0.953   3.557 -0.6660 -0.1281 -0.2756
21292SOL    HW265318   2.656   1.073   3.559 -1.1829  0.3191 -1.5243
21293SOL     OW65319   5.980   6.039   9.189 -0.2296 -0.3978  0.0923
21293SOL    HW165320   6.074   6.051   9.205 -0.1380 -1.9589  0.8830
21293SOL    HW265321   5.963   6.089   9.110  1.3451 -0.3447 -0.2482
21294SOL     OW65322   7.206   0.212   6.211 -0.0973  0.1375  0.1273
21294SOL    HW165323   7.201   0.214   6.306 -1.4227  1.2875  0.0718
21294SOL    HW265324   7.292   0.248   6.191  0.2332 -0.2086  0.8791
21295SOL     OW65325   2.609   6.656   8.068  0.1086 -0.1666  0.1482
21295SOL    HW165326   2.696   6.691   8.050 -0.3639  0.8006 -0.3210
21295SOL    HW265327   2.559   6.674   7.988 -1.0079  0.9123  1.0420
21296SOL     OW65328   1.036   6.301   3.452 -0.4535 -0.0471 -0.3076
21296SOL    HW165329   1.082   6.379   3.422  0.4523 -0.1677  0.7016
21296SOL    HW265330   1.078   6.279   3.535 -0.4333 -1.8481 -0.7559
21297SOL     OW65331   5.672   4.803   6.755  0.0935 -0.1519 -0.3529
21297SOL    HW165332   5.619   4.883   6.749  1.2746  0.6777  0.0533
21297SOL    HW265333   5.692   4.795   6.848  2.1145  0.5153 -0.6969
21298SOL     OW65334   7.070   7.728  10.846 -0.2239 -0.1478  0.1565
21298SOL    HW165335   7.128   7.761  10.777 -0.1451  0.5591  0.5494
21298SOL    HW265336   7.041   7.642  10.815  0.7885 -0.3688 -0.1833
21299SOL     OW65337   2.248   7.273  10.178 -0.2407  0.6039  0.5187
21299SOL    HW165338   2.260   7.365  10.153 -0.0605  0.2706 -0.6849
21299SOL    HW265339   2.312   7.226  10.125 -2.0093 -0.4718 -0.7480
21300SOL     OW65340   7.747   3.323   1.760 -0.1270  0.1187  0.0826
21300SOL    HW165341   7.756   3.394   1.697  0.1400  0.0659  0.0600
21300SOL    HW265342   7.831   3.321   1.806  0.0557 -0.5167 -0.2666
21301SOL     OW65343   4.510   4.189   0.922 -0.2006 -0.0643  0.2076
21301SOL    HW165344   4.508   4.107   0.873  1.3984 -1.0094  1.6020
21301SOL    HW265345   4.594   4.229   0.897 -0.0653  0.1645  1.0075
21302SOL     OW65346   6.937   7.002   8.438 -0.0952 -0.1022 -0.2991
21302SOL    HW165347   6.952   6.981   8.346  1.3341  0.7936 -0.3142
21302SOL    HW265348   7.025   7.008   8.475 -0.5820  1.3507  0.6891
21303SOL     OW65349   0.945   1.225   0.625 -0.6217 -0.1131  0.5385
21303SOL    HW165350   0.942   1.286   0.552  2.0329  1.4301  1.5585
21303SOL    HW265351   1.019   1.168   0.605 -0.4395 -0.2533  1.5584
21304SOL     OW65352   4.715   5.924   0.056 -0.3478  0.3368  0.2046
21304SOL    HW165353   4.727   6.003   0.107 -0.1644  0.9076 -0.6924
21304SOL    HW265354   4.665   5.865   0.112  1.6702  0.1095  1.8713
21305SOL     OW65355   0.923   2.345   0.784 -0.5896 -0.5420  0.5601
21305SOL    HW165356   0.851   2.408   0.788 -0.4686 -0.4519  1.3187
21305SOL    HW265357   0.994   2.393   0.742  0.3304  0.6748  3.2850
21306SOL     OW65358   7.101   7.345   7.824  0.3586  0.1981 -0.0856
21306SOL    HW165359   7.191   7.321   7.844  0.6181  0.9066 -0.3752
21306SOL    HW265360   7.079   7.293   7.746  0.7500  0.5501 -0.4289
21307SOL     OW65361   3.423   2.143   3.171  0.0863 -0.0626  0.2427
21307SOL    HW165362   3.381   2.150   3.256 -0.4333 -1.7856  0.1656
21307SOL    HW265363   3.408   2.228   3.130 -1.7401 -0.0075  0.9439
21308SOL     OW65364   1.777   7.977   6.989 -0.3245 -0.1555 -0.2811
21308SOL    HW165365   1.719   7.945   6.919 -1.3824 -1.1372  0.9925
21308SOL    HW265366   1.785   8.071   6.972  0.2711 -0.5287 -2.2910
21309SOL     OW65367   4.879   1.536   1.016 -0.2856 -0.5467 -0.4499
21309SOL    HW165368   4.800   1.484   1.000 -0.6928  0.2738 -1.1718
21309SOL    HW265369   4.907   1.510   1.104 -1.6604 -0.4504  0.0449
21310SOL     OW65370   5.756   2.594   3.322  0.2106 -0.4611 -0.5129
21310SOL    HW165371   5.782   2.514   3.276  1.3635  0.1400 -0.9214
21310SOL    HW265372   5.837   2.643   3.335 -0.4125  0.4287  0.1677
21311SOL     OW65373   3.301   7.031   0.632  0.3436 -0.0698  0.3504
21311SOL    HW165374   3.382   7.059   0.590 -0.2161 -0.6095 -1.1839
21311SOL    HW265375   3.329   6.971   0.701  1.2310 -0.6165 -0.4604
21312SOL     OW65376   6.518   0.649   3.854 -0.2752 -0.3398 -0.1535
21312SOL    HW165377   6.510   0.617   3.944 -0.5407  0.7170  0.2191
21312SOL    HW265378   6.575   0.726   3.861  0.1394 -0.5621 -0.9756
21313SOL     OW65379   2.586   4.216  11.241  0.1824 -0.4486  0.4990
21313SOL    HW165380   2.564   4.129  11.275  0.1725 -0.6190  0.0529
21313SOL    HW265381   2.506   4.268  11.255 -0.4671 -1.0240 -0.9789
21314SOL     OW65382   6.339   5.116  12.133  1.0846 -0.2570  0.0139
21314SOL    HW165383   6.412   5.167  12.170  0.0626  0.4416  1.1560
21314SOL    HW265384   6.359   5.109  12.040  1.6581  1.5790 -0.0395
21315SOL     OW65385   0.473   4.564   8.102 -0.0859 -0.4481 -0.2449
21315SOL    HW165386   0.435   4.514   8.175 -0.4202  1.3113  0.8266
21315SOL    HW265387   0.417   4.542   8.027 -0.6027 -1.1794  0.3428
21316SOL     OW65388   5.350   3.178   3.666 -0.0852  0.8448 -0.1006
21316SOL    HW165389   5.265   3.135   3.675  0.0982  0.7530  1.3784
21316SOL    HW265390   5.402   3.144   3.738  1.1097  1.1605 -0.7886
21317SOL     OW65391   1.587   7.636   9.651  0.0264 -0.0234  0.3803
21317SOL    HW165392   1.576   7.721   9.607 -0.8997 -0.7591 -0.8595
21317SOL    HW265393   1.671   7.645   9.698 -0.1547  1.6431  0.4683
21318SOL     OW65394   2.997   0.410   9.117  0.2891 -0.0258  1.1260
21318SOL    HW165395   2.901   0.419   9.123 -0.0036 -1.7828 -0.0855
21318SOL    HW265396   3.013   0.316   9.130  1.7210  0.0256 -0.0718
21319SOL     OW65397   4.471   1.079   4.660  0.2708 -0.5678  0.3781
21319SOL    HW165398   4.544   1.079   4.598 -0.0004 -2.4743 -0.0124
21319SOL    HW265399   4.479   1.162   4.707  3.2861 -1.1030  1.0400
21320SOL     OW65400   6.544   5.326   6.968 -0.0160  0.0345 -0.2738
21320SOL    HW165401   6.520   5.341   7.059 -0.1186  0.2945 -0.3435
21320SOL    HW265402   6.486   5.383   6.918  1.3807  1.4241 -0.3875
21321SOL     OW65403   2.269   5.870  11.276  0.2369  0.8984 -0.4508
21321SOL    HW165404   2.347   5.921  11.254  0.8881  0.4234  0.7187
21321SOL    HW265405   2.230   5.849  11.191  0.1525  3.0058 -0.9827
21322SOL     OW65406   6.962   1.558   8.856  0.0556 -0.0445  0.1962
21322SOL    HW165407   6.971   1.582   8.948 -1.2152 -1.3553  0.7049
21322SOL    HW265408   6.885   1.605   8.826  0.8708  0.9377 -0.4351
21323SOL     OW65409   5.361   2.016  10.722  0.2651 -0.4125  0.1172
21323SOL    HW165410   5.419   1.974  10.659  0.2012  1.4615 -1.2962
21323SOL    HW265411   5.288   1.955  10.733 -0.3446 -0.3038 -2.6331
21324SOL     OW65412   5.857   5.424  11.107 -0.2612  0.1777  0.7106
21324SOL    HW165413   5.779   5.387  11.066 -0.6231  0.8248  0.8100
21324SOL    HW265414   5.830   5.444  11.197  0.1512 -0.0140  0.8813
21325SOL     OW65415   0.693   1.221  10.071 -0.1198 -0.0521 -0.3513
21325SOL    HW165416   0.727   1.309  10.052  1.2616 -0.2875  0.8747
21325SOL    HW265417   0.767   1.163  10.057 -0.6491 -0.8626  0.1245
21326SOL     OW65418   1.099   4.708   7.838  0.4062 -0.3599  0.0343
21326SOL    HW165419   1.078   4.728   7.929  0.5107  0.0000 -0.0208
21326SOL    HW265420   1.153   4.781   7.809 -0.6544  0.1677 -0.6864
21327SOL     OW65421   3.166   7.604  11.044 -0.1818 -0.1232  0.6121
21327SOL    HW165422   3.257   7.579  11.026 -0.3771 -0.2152 -0.2814
21327SOL    HW265423   3.173   7.680  11.102  0.4570 -0.3195  0.7994
21328SOL     OW65424   1.187   1.913  12.165 -0.2562  0.1759 -0.1671
21328SOL    HW165425   1.169   1.953  12.079  1.1218  2.6296  0.6095
21328SOL    HW265426   1.199   1.987  12.224 -1.5353 -1.4484  2.2926
21329SOL     OW65427   4.815   4.700  12.101  0.0121  0.2742 -0.1059
21329SOL    HW165428   4.823   4.770  12.165 -3.7635  2.0879 -1.3328
21329SOL    HW265429   4.774   4.628  12.149  1.0765  0.0219  0.4441
21330SOL     OW65430   7.399   5.630   6.851  0.6571 -0.4994  0.1417
21330SOL    HW165431   7.333   5.698   6.834  0.4396 -0.6780  0.2663
21330SOL    HW265432   7.431   5.606   6.764  1.7349  0.7328  0.1655
21331SOL     OW65433   4.931   3.108   4.593 -0.0878  0.3720  0.1021
21331SOL    HW165434   4.895   3.195   4.612  1.5817  1.1814 -0.3143
21331SOL    HW265435   4.996   3.093   4.662  0.1989 -0.2182 -0.2832
21332SOL     OW65436   6.926   3.610   7.939 -0.6692 -0.0233  0.1425
21332SOL    HW165437   6.942   3.698   7.975 -0.7473 -0.3256  0.9372
21332SOL    HW265438   6.830   3.605   7.932 -0.6991 -0.2592  0.6666
21333SOL     OW65439   2.239   4.803   4.243  0.1476 -0.2270  0.0849
21333SOL    HW165440   2.306   4.770   4.304  0.9479  0.4380 -0.4100
21333SOL    HW265441   2.284   4.872   4.193 -1.5091  1.8628  1.2862
21334SOL     OW65442   4.203   5.352   7.710 -0.3554 -0.0322  0.2757
21334SOL    HW165443   4.202   5.434   7.660 -2.1885 -0.7768 -1.0352
21334SOL    HW265444   4.264   5.368   7.782  0.0557  2.1408 -0.4826
21335SOL     OW65445   0.791   2.806   5.660 -0.2435  0.8331 -0.5720
21335SOL    HW165446   0.796   2.887   5.710 -0.4336 -0.0914  1.0262
21335SOL    HW265447   0.699   2.798   5.636 -0.4312  0.5920  0.1896
21336SOL     OW65448   5.428   6.369  10.918  0.2040  0.5127 -0.5439
21336SOL    HW165449   5.375   6.290  10.928  0.3165  0.4474 -0.4582
21336SOL    HW265450   5.407   6.423  10.994  1.3266 -0.1404  0.2642
21337SOL     OW65451   7.757   1.487   9.682 -0.1549 -0.5868  0.5825
21337SOL    HW165452   7.747   1.395   9.656  0.9443 -0.4403 -0.4348
21337SOL    HW265453   7.851   1.501   9.686 -0.3110  0.4915  0.7625
21338SOL     OW65454   2.958   6.744   4.953 -0.4813  0.3907 -0.1174
21338SOL    HW165455   3.026   6.699   5.003  0.3360  0.5105 -1.0710
21338SOL    HW265456   2.875   6.714   4.991  0.0968  0.9499  1.6848
21339SOL     OW65457   0.789   6.182   2.534  0.0911 -0.9285  0.4119
21339SOL    HW165458   0.822   6.092   2.528  1.2050 -0.5038 -0.3461
21339SOL    HW265459   0.789   6.202   2.627 -0.0583 -1.6827  0.5785
21340SOL     OW65460   7.949   5.632   8.568  0.1091  0.0648  0.3142
21340SOL    HW165461   7.944   5.723   8.597  1.8454  0.4704 -0.5195
21340SOL    HW265462   8.014   5.592   8.626  0.2675 -0.3147 -0.1178
21341SOL     OW65463   2.801   2.552   9.890 -0.6007 -0.0928  0.1314
21341SOL    HW165464   2.802   2.599   9.973  0.2796  1.4552 -0.7083
21341SOL    HW265465   2.710   2.523   9.879 -0.9932  0.7643  1.0334
21342SOL     OW65466   3.173   1.211  11.505 -0.0488 -0.0599 -0.3883
21342SOL    HW165467   3.094   1.208  11.559  0.6520 -0.2383  0.6638
21342SOL    HW265468   3.196   1.304  11.500 -0.9872  0.1322 -1.7352
21343SOL     OW65469   7.468   7.142   6.365 -0.4462  0.1269 -0.5453
21343SOL    HW165470   7.384   7.183   6.387  0.5793  1.7299  0.6570
21343SOL    HW265471   7.476   7.070   6.427 -0.1573  1.1075  0.6066
21344SOL     OW65472   7.593   2.099   8.828  0.1226  0.0850 -0.1748
21344SOL    HW165473   7.571   2.107   8.921 -0.7224 -2.2798 -0.1076
21344SOL    HW265474   7.529   2.155   8.783  1.0564  1.9182  0.6502
21345SOL     OW65475   6.808   5.907   1.894  0.7550 -0.1393 -0.5032
21345SOL    HW165476   6.879   5.842   1.888 -0.0506 -1.1607  0.6448
21345SOL    HW265477   6.813   5.938   1.984 -0.1905 -0.1392 -0.4504
21346SOL     OW65478   3.589   3.422   4.525 -0.4512  0.8449  0.2433
21346SOL    HW165479   3.678   3.388   4.530  0.0700  2.1644  0.5521
21346SOL    HW265480   3.540   3.355   4.479  0.7688  0.2056 -0.1749
21347SOL     OW65481   2.373   2.255   0.116 -0.2906 -0.0070 -0.6964
21347SOL    HW165482   2.438   2.185   0.118 -0.5311 -0.2349 -0.6728
21347SOL    HW265483   2.384   2.297   0.031  0.7753  0.8144 -0.1770
21348SOL     OW65484   6.594   5.217   5.928  0.2830 -0.1604 -0.5860
21348SOL    HW165485   6.582   5.122   5.928 -0.1852 -0.1238 -2.1527
21348SOL    HW265486   6.580   5.244   5.837  0.7279  1.3761 -0.2421
21349SOL     OW65487   7.709   5.400   3.932 -0.2488  0.2690  0.2675
21349SOL    HW165488   7.732   5.425   4.022  0.3457  1.0236 -0.0763
21349SOL    HW265489   7.630   5.449   3.913  0.1407  0.8393  0.0745
21350SOL     OW65490   3.918   7.402  11.483 -0.3683  0.3182 -0.0280
21350SOL    HW165491   3.826   7.428  11.478 -0.3904 -0.0132 -2.4118
21350SOL    HW265492   3.923   7.346  11.561 -2.6025 -1.2182 -0.9040
21351SOL     OW65493   0.547   3.367   1.495 -0.3619 -0.0069  0.0391
21351SOL    HW165494   0.582   3.281   1.471 -0.0408  0.0009  0.4637
21351SOL    HW265495   0.616   3.428   1.469 -0.6091  0.1290 -0.3030
21352SOL     OW65496   3.957   4.609   6.571  0.1455 -0.8954 -0.0545
21352SOL    HW165497   3.978   4.701   6.587 -1.9252 -0.4213  0.1882
21352SOL    HW265498   4.041   4.564   6.575  0.9715  0.6982  1.7735
21353SOL     OW65499   7.050   5.650   1.608 -0.3298  0.1247 -0.0740
21353SOL    HW165500   7.077   5.606   1.527 -0.5230 -0.0393 -0.0519
21353SOL    HW265501   6.964   5.686   1.588 -0.8351 -0.7876  0.3647
21354SOL     OW65502   5.636   2.688   7.283  0.0581  0.2249  0.1248
21354SOL    HW165503   5.684   2.660   7.206  0.9101 -1.3667  1.1662
21354SOL    HW265504   5.555   2.727   7.249  0.2750 -0.7015 -1.5394
21355SOL     OW65505   1.875   3.075   9.589 -0.0127 -0.3818  0.4768
21355SOL    HW165506   1.821   2.996   9.591  0.1356 -0.5451 -1.0153
21355SOL    HW265507   1.942   3.059   9.655  0.7483 -2.0775 -0.6242
21356SOL     OW65508   7.917   4.147   6.019  0.0952  0.2485  0.1021
21356SOL    HW165509   8.011   4.134   6.016 -0.1653 -1.9711 -0.5525
21356SOL    HW265510   7.899   4.174   6.109  1.2494 -0.5775  0.6107
21357SOL     OW65511   4.161   5.733   6.002  0.0635  0.4386 -0.5091
21357SOL    HW165512   4.110   5.692   5.932 -0.5112  0.6146 -0.2049
21357SOL    HW265513   4.149   5.827   5.989  1.3768  0.5307 -1.2047
21358SOL     OW65514   2.898   7.455   4.402  0.0561  0.2174  0.4085
21358SOL    HW165515   2.879   7.521   4.335  2.1311  1.6367  1.1165
21358SOL    HW265516   2.876   7.371   4.360 -1.3489  1.2404 -1.0091
21359SOL     OW65517   5.000   0.483  11.299  0.5499 -0.7185  0.1560
21359SOL    HW165518   4.913   0.504  11.334  0.1180 -0.6838 -0.9021
21359SOL    HW265519   5.031   0.412  11.355 -0.4380 -1.1664  0.1613
21360SOL     OW65520   3.930   6.833   8.801  0.2118  0.1173  0.3025
21360SOL    HW165521   3.835   6.827   8.790  0.1293  0.8010  0.6201
21360SOL    HW265522   3.962   6.747   8.774 -0.5578 -0.3740  0.9224
21361SOL     OW65523   5.027   4.400   4.426  0.2077  0.4765  0.4286
21361SOL    HW165524   5.054   4.491   4.433  0.7703  0.2483  1.4820
21361SOL    HW265525   4.971   4.397   4.349  2.8127  1.0718 -1.6410
21362SOL     OW65526   4.699   6.284  11.538 -0.3476  0.3700  0.0790
21362SOL    HW165527   4.655   6.233  11.606 -1.3205  1.5740  0.3868
21362SOL    HW265528   4.630   6.340  11.502  0.4736  0.7579 -0.9285
21363SOL     OW65529   7.815   1.536   8.531  0.4497  0.0900  0.0441
21363SOL    HW165530   7.721   1.537   8.544  0.4674 -0.1883  0.1986
21363SOL    HW265531   7.847   1.464   8.587  0.3865 -2.0007 -2.4247
21364SOL     OW65532   2.659   5.419   8.045 -0.1699  0.0455  0.1891
21364SOL    HW165533   2.602   5.408   8.121  0.2281 -0.8233  0.3750
21364SOL    HW265534   2.740   5.373   8.069 -0.8789 -2.3643 -1.6651
21365SOL     OW65535   6.213   1.708  11.944  0.0722 -0.2941  0.5142
21365SOL    HW165536   6.240   1.800  11.939  0.2177 -0.3452  0.3331
21365SOL    HW265537   6.280   1.666  11.997  0.4696 -0.4616 -0.1043
21366SOL     OW65538   4.327   4.960  11.746 -0.1884 -0.5693  0.8662
21366SOL    HW165539   4.416   4.980  11.776 -0.0738 -1.1146  0.8987
21366SOL    HW265540   4.308   5.027  11.680  0.2517 -0.4548  0.8540
21367SOL     OW65541   0.631   7.574   5.014 -1.2645 -0.0195 -0.6823
21367SOL    HW165542   0.566   7.554   5.082 -0.5025  1.1094  0.4220
21367SOL    HW265543   0.586   7.634   4.955 -1.6345 -0.2653 -0.6538
21368SOL     OW65544   2.791   0.634   5.437 -0.6348 -0.0140  0.0056
21368SOL    HW165545   2.759   0.673   5.518 -1.6284  0.5210 -0.6222
21368SOL    HW265546   2.787   0.539   5.452  0.2781  0.0744  0.9672
21369SOL     OW65547   4.976   5.832   6.242  0.0838 -0.3122  0.3887
21369SOL    HW165548   5.057   5.847   6.193  0.1731 -2.0253 -0.0721
21369SOL    HW265549   5.000   5.767   6.309 -0.9632 -1.1390  0.0030
21370SOL     OW65550   6.940   1.179   4.751  0.0429  0.1069  0.2544
21370SOL    HW165551   6.900   1.139   4.674 -1.0521  1.5361  0.0482
21370SOL    HW265552   6.964   1.104   4.806 -1.7320 -0.8600 -0.2010
21371SOL     OW65553   3.824   6.445  10.530 -0.5645 -0.8460 -0.9498
21371SOL    HW165554   3.846   6.506  10.460  1.4200  1.7038  1.6858
21371SOL    HW265555   3.875   6.366  10.509  3.1289  1.2096 -0.5530
21372SOL     OW65556   2.113   4.607  10.428 -0.4744 -0.2227  0.2195
21372SOL    HW165557   2.086   4.574  10.514 -0.2060  0.9201  0.7649
21372SOL    HW265558   2.102   4.702  10.435 -0.3437 -0.1077 -0.9817
21373SOL     OW65559   4.955   1.993   3.427  0.3378  0.1170  0.0408
21373SOL    HW165560   4.971   2.062   3.362  2.0272 -0.1192  0.1588
21373SOL    HW265561   5.037   1.987   3.477 -0.1745 -1.1867  0.7856
21374SOL     OW65562   2.243   2.485   2.277 -0.0279 -0.4372 -0.3523
21374SOL    HW165563   2.248   2.391   2.295 -1.5948 -0.5989 -0.5753
21374SOL    HW265564   2.165   2.515   2.324  0.7260  0.8761  0.1281
21375SOL     OW65565   4.201   2.079  11.340  0.1668 -0.4037  0.0808
21375SOL    HW165566   4.149   2.155  11.365 -0.6439 -1.1349  0.6841
21375SOL    HW265567   4.180   2.064  11.247  1.7894  1.2218 -0.6035
21376SOL     OW65568   1.525   7.158   6.769 -0.4731  0.3359 -0.1950
21376SOL    HW165569   1.606   7.204   6.751 -1.6926  3.0100  0.5881
21376SOL    HW265570   1.542   7.111   6.851 -0.9201  4.6981  2.7130
21377SOL     OW65571   1.777   6.976   7.194 -0.1913  0.3422  0.4368
21377SOL    HW165572   1.799   6.888   7.226 -1.4693 -0.2815 -0.3400
21377SOL    HW265573   1.831   7.034   7.247 -1.5815 -0.6891  3.2217
21378SOL     OW65574   0.172   0.471   6.968 -0.3659  0.2109 -0.1215
21378SOL    HW165575   0.078   0.456   6.984 -0.4927 -0.9321 -1.6743
21378SOL    HW265576   0.177   0.487   6.874  1.1611 -1.4363 -0.3716
21379SOL     OW65577   4.259   4.178   8.988  0.6443 -0.6776  0.3889
21379SOL    HW165578   4.240   4.136   8.905  3.4650 -0.9182 -0.2457
21379SOL    HW265579   4.298   4.109   9.042  1.6876  0.1803  0.7678
21380SOL     OW65580   4.836   7.026   0.700  0.0475  0.2829 -0.6303
21380SOL    HW165581   4.793   6.946   0.730 -0.9503  1.1026  0.1737
21380SOL    HW265582   4.821   7.027   0.605  2.0113 -1.5999 -1.0252
21381SOL     OW65583   1.131   5.924   4.881  0.0654 -0.0043  0.0785
21381SOL    HW165584   1.118   5.829   4.872  1.7657 -0.5799  2.6312
21381SOL    HW265585   1.044   5.958   4.903 -0.6532 -0.8506 -1.2731
21382SOL     OW65586   7.111   6.939   2.338  0.0669  0.0591 -0.0062
21382SOL    HW165587   7.153   6.927   2.424 -1.0761 -2.8087  0.2555
21382SOL    HW265588   7.018   6.946   2.358 -0.2845 -1.3754 -1.0127
21383SOL     OW65589   0.239   5.007   2.662  0.0390  0.1456  0.2624
21383SOL    HW165590   0.305   4.954   2.616  0.7791  0.8371  0.5023
21383SOL    HW265591   0.161   4.952   2.662 -0.2629  0.4197 -2.5110
21384SOL     OW65592   6.479   7.293  11.913 -0.4635 -0.1928 -0.4206
21384SOL    HW165593   6.392   7.314  11.879 -0.8827  0.4174  0.9666
21384SOL    HW265594   6.530   7.373  11.899 -1.3399  0.9998  2.5331
21385SOL     OW65595   1.416   0.363   8.496 -0.1536  0.0780  0.0385
21385SOL    HW165596   1.321   0.358   8.502 -0.1178 -0.4601  0.2236
21385SOL    HW265597   1.437   0.326   8.410 -0.1454  0.7070 -0.2354
21386SOL     OW65598   1.936   4.597  11.972  0.4649 -0.0094 -0.0161
21386SOL    HW165599   1.866   4.649  12.010  0.3794 -1.0802  1.3765
21386SOL    HW265600   1.901   4.566  11.889 -0.2216  0.5176  0.0693
21387SOL     OW65601   5.526   5.872   0.054  0.1627  0.0114 -0.3004
21387SOL    HW165602   5.524   5.833   0.141  0.3278 -0.6457 -0.5879
21387SOL    HW265603   5.609   5.843   0.016  0.4332  0.8898 -0.4103
21388SOL     OW65604   0.828   0.862   0.581  0.1776 -0.0529 -0.4147
21388SOL    HW165605   0.856   0.929   0.518 -0.1164  1.8357  1.3503
21388SOL    HW265606   0.736   0.846   0.559  0.2607  0.0898 -0.8815
21389SOL     OW65607   3.455   2.845   6.531  0.1589  0.3686 -0.0992
21389SOL    HW165608   3.523   2.858   6.598 -1.1551  1.5895  1.0778
21389SOL    HW265609   3.427   2.754   6.543  1.4412 -0.1021 -0.4924
21390SOL     OW65610   7.572   2.316   7.249  0.6846 -0.1234  0.1681
21390SOL    HW165611   7.527   2.251   7.303  0.1406  0.8959  0.9858
21390SOL    HW265612   7.564   2.397   7.298  0.0274  0.8890 -1.5124
21391SOL     OW65613   2.107   5.101   5.936 -0.2773  0.5493 -0.2951
21391SOL    HW165614   2.035   5.126   5.878 -0.0049 -1.6439 -1.7240
21391SOL    HW265615   2.184   5.099   5.880  0.0389 -1.4409  0.1003
21392SOL     OW65616   3.507   2.698  10.698 -0.9081  0.0849  0.0246
21392SOL    HW165617   3.588   2.682  10.651 -0.1935 -1.1415  1.5592
21392SOL    HW265618   3.442   2.716  10.630  1.0603  3.6260 -1.1801
21393SOL     OW65619   5.012   0.124   9.101 -0.3583  0.0739 -0.7322
21393SOL    HW165620   4.933   0.118   9.155 -0.1417 -1.0562 -0.5133
21393SOL    HW265621   5.021   0.037   9.062 -0.2018  0.7082 -2.1631
21394SOL     OW65622   4.686   7.470   6.566 -0.4683 -0.5007  0.7253
21394SOL    HW165623   4.616   7.472   6.500 -0.1424 -1.5426  0.3162
21394SOL    HW265624   4.676   7.385   6.609  0.0255 -0.3055  1.2469
21395SOL     OW65625   4.592   5.538  11.570 -0.4169  0.0132 -0.7212
21395SOL    HW165626   4.565   5.491  11.491  1.8267 -1.1954 -0.8579
21395SOL    HW265627   4.688   5.541  11.565 -0.2088  0.0814  1.8401
21396SOL     OW65628   5.339   5.640   6.875 -0.6769  0.5968  0.5247
21396SOL    HW165629   5.410   5.625   6.813 -1.3451  1.2855 -0.4345
21396SOL    HW265630   5.262   5.601   6.834 -1.1233  1.0320  0.9270
21397SOL     OW65631   3.703   5.116   3.449 -0.2634  0.3167 -0.0562
21397SOL    HW165632   3.715   5.042   3.508  1.2793  0.1700 -0.4963
21397SOL    HW265633   3.758   5.186   3.486  1.7537 -0.1700 -1.8980
21398SOL     OW65634   2.243   2.583  11.165 -0.1916 -0.2824  0.0181
21398SOL    HW165635   2.333   2.607  11.185 -0.3624 -0.1088  0.6058
21398SOL    HW265636   2.248   2.492  11.138  0.2842  0.0100 -0.9023
21399SOL     OW65637   5.150   4.594   7.611  0.1241 -0.0362 -0.2565
21399SOL    HW165638   5.097   4.668   7.641 -0.2809 -0.5290  0.2647
21399SOL    HW265639   5.209   4.576   7.683 -0.5278 -0.9195  0.0722
21400SOL     OW65640   0.687   3.409   6.921 -0.9276 -0.1146 -0.2819
21400SOL    HW165641   0.653   3.392   6.832 -0.2520 -0.7247 -0.4337
21400SOL    HW265642   0.654   3.335   6.973 -2.4018  0.9073  0.2870
21401SOL     OW65643   7.346   4.710   0.793  0.0415 -0.3094 -0.8182
21401SOL    HW165644   7.398   4.714   0.873 -0.2839 -1.0028 -0.5597
21401SOL    HW265645   7.406   4.738   0.724  0.0937  1.0958 -0.2433
21402SOL     OW65646   4.581   0.787   5.398  0.2226 -0.3010  0.0578
21402SOL    HW165647   4.572   0.800   5.303  0.6908 -1.0536 -0.0941
21402SOL    HW265648   4.642   0.856   5.425 -2.8049  2.4543  0.4926
21403SOL     OW65649   1.109   0.236   3.983 -0.7723 -0.2957  0.6924
21403SOL    HW165650   1.180   0.212   3.923 -1.1572  0.5194 -0.1138
21403SOL    HW265651   1.047   0.285   3.929 -0.4391  1.7420  2.0216
21404SOL     OW65652   1.990   2.489   5.707 -0.1062  0.1982 -0.0571
21404SOL    HW165653   2.069   2.520   5.664  1.4319 -0.4173  2.1139
21404SOL    HW265654   1.959   2.417   5.652  2.5567 -1.4885  0.4527
21405SOL     OW65655   1.167   4.922   3.423 -0.4645 -0.8779 -0.1076
21405SOL    HW165656   1.133   4.908   3.335 -0.5944 -0.6285 -0.0997
21405SOL    HW265657   1.124   4.855   3.476 -0.4022 -1.0154 -0.2304
21406SOL     OW65658   2.125   1.402   4.626  0.0431 -0.2180 -0.3886
21406SOL    HW165659   2.189   1.379   4.559  1.6864 -0.3568  1.1553
21406SOL    HW265660   2.051   1.438   4.577  0.7351 -1.2915 -2.3220
21407SOL     OW65661   1.916   2.202   8.743  1.3143  0.6718  0.2360
21407SOL    HW165662   1.976   2.277   8.747  0.7257  1.1660 -0.0314
21407SOL    HW265663   1.889   2.198   8.652 -0.3912  1.5370  0.6594
21408SOL     OW65664   6.932   1.165   5.420  0.1871  0.4545 -0.3858
21408SOL    HW165665   6.973   1.244   5.385 -0.5636  0.7849 -0.5297
21408SOL    HW265666   6.905   1.190   5.508 -0.0160  0.3431 -0.4176
21409SOL     OW65667   4.695   2.650   2.486  0.0509  0.4147 -0.2504
21409SOL    HW165668   4.780   2.669   2.446  0.6801 -0.3432  0.6688
21409SOL    HW265669   4.693   2.555   2.494 -1.4820  0.3066 -1.4702
21410SOL     OW65670   1.274   6.932   0.514 -0.2931  0.1521 -0.1150
21410SOL    HW165671   1.208   6.932   0.583  0.8475  2.4002  1.0877
21410SOL    HW265672   1.237   6.877   0.445 -2.1420 -0.9367  1.6485
21411SOL     OW65673   0.113   5.025   1.262 -0.1862  0.0847 -0.2659
21411SOL    HW165674   0.182   5.040   1.326 -0.7739 -0.6007  0.5576
21411SOL    HW265675   0.056   5.102   1.270 -0.2847 -0.0198  0.0924
21412SOL     OW65676   0.817   3.317   4.256 -0.0012 -0.3695 -0.7406
21412SOL    HW165677   0.838   3.410   4.248  0.0360 -0.2807  0.3317
21412SOL    HW265678   0.800   3.304   4.349  1.3604 -1.7347 -0.6495
21413SOL     OW65679   1.511   2.853  10.684 -0.4668  0.1837  0.2985
21413SOL    HW165680   1.473   2.845  10.596  0.2885  1.0521 -0.1329
21413SOL    HW265681   1.456   2.917  10.728  0.7468  1.8692 -0.5166
21414SOL     OW65682   1.864   5.788   0.185  0.2075 -0.2953  0.0226
21414SOL    HW165683   1.779   5.819   0.152 -1.3139 -1.4970  2.5668
21414SOL    HW265684   1.887   5.716   0.127 -0.0719  0.5217 -1.1611
21415SOL     OW65685   7.590   6.753   3.830  0.1245 -0.1159  0.0653
21415SOL    HW165686   7.606   6.768   3.736 -2.4674 -0.5915 -0.5296
21415SOL    HW265687   7.626   6.830   3.873 -0.3568  1.0634 -1.5497
21416SOL     OW65688   6.703   1.968  12.222  0.1529  0.0736 -0.2314
21416SOL    HW165689   6.670   2.004  12.139  0.1693  0.2740 -0.1534
21416SOL    HW265690   6.751   1.889  12.197 -0.0796 -0.0219 -0.3845
21417SOL     OW65691   7.555   4.804  12.443 -0.2232 -0.0116  0.5076
21417SOL    HW165692   7.542   4.728  12.500 -0.7583 -0.2931  0.0148
21417SOL    HW265693   7.468   4.841  12.431 -0.1135  0.0611 -0.1064
21418SOL     OW65694   2.052   7.197   5.432  0.4167 -0.5451  0.0008
21418SOL    HW165695   2.079   7.280   5.393 -0.7911 -0.4407 -0.6661
21418SOL    HW265696   2.005   7.223   5.511 -3.8462 -0.1777 -2.3540
21419SOL     OW65697   3.515   3.187   3.258  0.3956 -0.3526  0.2912
21419SOL    HW165698   3.562   3.148   3.332  0.4498  0.1615  0.5291
21419SOL    HW265699   3.423   3.166   3.274 -0.2959  3.7020  3.0683
21420SOL     OW65700   5.637   4.201  10.832 -0.2338  0.2265 -0.4287
21420SOL    HW165701   5.695   4.238  10.766  1.1489  0.1736  0.7207
21420SOL    HW265702   5.571   4.153  10.781 -0.7567  2.3237 -1.8449
21421SOL     OW65703   6.708   2.556  11.583  0.5744  0.3318  0.1966
21421SOL    HW165704   6.627   2.510  11.605  0.6230  0.8579  1.5123
21421SOL    HW265705   6.754   2.495  11.525 -1.1623  0.4151 -1.3554
21422SOL     OW65706   1.166   0.318  10.780 -0.7173 -0.1820 -0.3800
21422SOL    HW165707   1.175   0.355  10.692 -2.7418 -1.0389 -0.9905
21422SOL    HW265708   1.151   0.395  10.836 -0.3193  0.2932 -0.9088
21423SOL     OW65709   4.207   7.181   3.334  0.2750 -0.1877  0.4555
21423SOL    HW165710   4.238   7.180   3.424 -1.2806  0.3792  1.0279
21423SOL    HW265711   4.120   7.140   3.337 -0.6058  1.4978 -0.4370
21424SOL     OW65712   6.977   0.300   3.648  0.8346  0.3974 -0.5706
21424SOL    HW165713   6.990   0.351   3.728  0.6215  1.1097 -0.9813
21424SOL    HW265714   6.883   0.283   3.645  1.1118 -1.7848  0.6027
21425SOL     OW65715   6.312   4.599   9.422 -0.1377  0.4043  0.4128
21425SOL    HW165716   6.305   4.556   9.337 -0.6970  0.2656  0.5207
21425SOL    HW265717   6.283   4.689   9.406  0.7291  0.6566  0.2503
21426SOL     OW65718   5.947   2.135   4.153  0.3355 -0.3600 -0.7560
21426SOL    HW165719   5.975   2.061   4.207 -2.1811 -0.6088  0.3549
21426SOL    HW265720   5.980   2.212   4.200 -1.9858 -0.5540  1.4439
21427SOL     OW65721   1.412   7.239   5.786 -0.4246  1.0488  0.3161
21427SOL    HW165722   1.427   7.283   5.702  0.3131  0.4518  0.1276
21427SOL    HW265723   1.383   7.151   5.762  1.5484  0.2521  0.6340
21428SOL     OW65724   3.508   4.401   2.990  0.3124 -0.4299  0.6566
21428SOL    HW165725   3.542   4.356   2.913  0.3564 -0.7674  0.8682
21428SOL    HW265726   3.576   4.389   3.056  0.9758  1.1887  0.3037
21429SOL     OW65727   6.715   4.701   7.978  0.5526 -0.5699  0.3637
21429SOL    HW165728   6.751   4.686   7.890  0.8549  1.0203  0.1855
21429SOL    HW265729   6.647   4.767   7.965 -1.0168 -1.9726  1.0228
21430SOL     OW65730   2.408   0.470   1.696  0.2479  0.2026  0.2006
21430SOL    HW165731   2.409   0.454   1.790  0.0921  0.0868  0.1837
21430SOL    HW265732   2.353   0.547   1.685  1.0589  0.8036  0.2889
21431SOL     OW65733   2.484   0.465   5.590 -0.3757  0.0347  0.3057
21431SOL    HW165734   2.415   0.429   5.534  0.5422 -0.3051 -0.6455
21431SOL    HW265735   2.450   0.455   5.679 -1.0031 -1.3604 -0.0541
21432SOL     OW65736   5.258   4.590   1.359 -0.0107 -0.3973 -0.0404
21432SOL    HW165737   5.205   4.623   1.431  0.6447  1.2330 -0.2578
21432SOL    HW265738   5.347   4.586   1.393  0.0402 -1.3073 -0.2451
21433SOL     OW65739   0.571   1.717   2.411  0.0778 -0.0175  0.1910
21433SOL    HW165740   0.477   1.723   2.427 -0.1670 -1.0976 -0.6398
21433SOL    HW265741   0.610   1.787   2.463 -1.1994  0.5376  0.4284
21434SOL     OW65742   6.987   0.474   7.403 -0.1129 -0.2640 -0.1575
21434SOL    HW165743   6.945   0.393   7.375 -0.9118 -0.5995  1.8155
21434SOL    HW265744   6.918   0.523   7.446  0.7902  0.5979  0.3586
21435SOL     OW65745   3.297   2.031   0.637  0.0449 -0.7041  0.2498
21435SOL    HW165746   3.321   2.071   0.553  2.7183  0.2825  1.3720
21435SOL    HW265747   3.254   2.101   0.685 -0.2826 -0.8676  0.1960
21436SOL     OW65748   6.817   3.712   4.362  0.1134  0.6798  0.3548
21436SOL    HW165749   6.905   3.717   4.399  0.7508 -2.2290 -0.5231
21436SOL    HW265750   6.760   3.697   4.438  0.9186 -1.4336  0.5820
21437SOL     OW65751   1.694   0.570   8.875  0.1946 -0.6788 -0.1764
21437SOL    HW165752   1.775   0.570   8.927  1.2164 -0.2788 -1.6848
21437SOL    HW265753   1.689   0.482   8.838 -0.5374 -0.9687  0.5904
21438SOL     OW65754   7.883   5.680   4.003 -0.5084 -0.0511  0.0507
21438SOL    HW165755   7.794   5.707   4.025  0.1485  0.5039  2.1865
21438SOL    HW265756   7.909   5.739   3.932 -1.7305 -0.0761 -0.4459
21439SOL     OW65757   2.197   6.724   4.694 -0.0920  0.2598  0.0734
21439SOL    HW165758   2.259   6.795   4.710 -0.0277  0.0578  0.7334
21439SOL    HW265759   2.134   6.730   4.765  0.6614 -1.1490  0.8987
21440SOL     OW65760   0.495   4.165   6.450 -0.3278  0.5341  0.3247
21440SOL    HW165761   0.546   4.243   6.429  0.7640 -0.1718  0.2606
21440SOL    HW265762   0.458   4.137   6.366  0.9257 -0.1292 -0.0379
21441SOL     OW65763   5.688   6.042   7.133  0.7812 -0.0163 -0.7581
21441SOL    HW165764   5.774   6.023   7.170  0.6143  0.0730 -0.3160
21441SOL    HW265765   5.666   5.965   7.082  1.3861  0.2005 -1.3653
21442SOL     OW65766   6.126   3.100   3.784 -0.1153 -0.1874  0.5882
21442SOL    HW165767   6.198   3.135   3.836  0.7352  1.6317 -1.6189
21442SOL    HW265768   6.055   3.088   3.846  1.4794 -0.2407  2.5157
21443SOL     OW65769   4.178   4.706   8.919  0.5536 -0.1644 -0.8564
21443SOL    HW165770   4.178   4.792   8.876 -0.9559  0.4834  0.3340
21443SOL    HW265771   4.086   4.681   8.923  0.4918  0.1165  2.4535
21444SOL     OW65772   4.962   2.798   4.512 -0.0946 -0.2756  0.0546
21444SOL    HW165773   4.873   2.775   4.535  0.4908  0.0151  2.9830
21444SOL    HW265774   4.962   2.894   4.509 -0.0253 -0.2886 -0.8027
21445SOL     OW65775   1.445   1.148   2.245  0.2909 -0.0108 -0.3028
21445SOL    HW165776   1.438   1.240   2.271  0.5533  0.2620 -1.1333
21445SOL    HW265777   1.539   1.131   2.242  0.3742  0.5131 -2.7439
21446SOL     OW65778   3.270   4.755   4.043  0.2948  0.3885  0.0824
21446SOL    HW165779   3.238   4.718   4.125 -0.5073  2.3282  0.6886
21446SOL    HW265780   3.349   4.704   4.023  0.7091  0.1198  2.2316
21447SOL     OW65781   2.278   3.625  11.277 -0.1148 -0.2448  0.1097
21447SOL    HW165782   2.319   3.589  11.199  0.7252 -1.7857  1.2178
21447SOL    HW265783   2.195   3.578  11.285 -0.1116 -0.2240  0.2703
21448SOL     OW65784   0.846   0.788   9.943  0.6990 -0.1883 -0.2545
21448SOL    HW165785   0.868   0.747  10.027 -0.2719 -0.8571 -0.3143
21448SOL    HW265786   0.901   0.742   9.880  0.0893 -0.9782 -0.2302
21449SOL     OW65787   7.508   6.912  11.849  0.1623  0.2610 -0.2997
21449SOL    HW165788   7.520   6.834  11.903  0.1978  1.4151  1.4676
21449SOL    HW265789   7.417   6.910  11.822  0.1244 -0.3084 -0.1306
21450SOL     OW65790   7.459   3.582  12.099  0.1852 -0.4509  0.1626
21450SOL    HW165791   7.390   3.639  12.062 -1.0871 -1.8979  0.2284
21450SOL    HW265792   7.413   3.528  12.163  1.8534  0.1016  1.8876
21451SOL     OW65793   4.858   5.485   6.616  0.3121  0.1285  0.5160
21451SOL    HW165794   4.858   5.389   6.613  0.4275  0.1450 -0.2885
21451SOL    HW265795   4.865   5.512   6.524 -0.7829  0.9125  0.6428
21452SOL     OW65796   6.976   3.238   6.383 -0.0942 -0.0647 -0.0086
21452SOL    HW165797   7.059   3.226   6.428 -0.1191 -0.7350 -0.1384
21452SOL    HW265798   6.922   3.289   6.444 -0.0969 -0.8839  0.6851
21453SOL     OW65799   4.896   0.374   4.181 -0.1133  0.4148  0.0604
21453SOL    HW165800   4.909   0.279   4.182  0.1377  0.4506  0.3531
21453SOL    HW265801   4.924   0.403   4.268  0.0957  0.7935 -0.1305
21454SOL     OW65802   6.871   2.549   2.466 -0.5298 -0.0132  0.0868
21454SOL    HW165803   6.898   2.598   2.544 -0.1359  1.2155 -0.8054
21454SOL    HW265804   6.939   2.483   2.455 -0.5509 -0.1538  0.7332
21455SOL     OW65805   6.763   5.530  11.467  0.5453  0.5278 -0.1610
21455SOL    HW165806   6.745   5.610  11.515  0.8861 -0.2859  1.3912
21455SOL    HW265807   6.704   5.532  11.392 -0.2692  1.6585  0.4948
21456SOL     OW65808   1.528   0.998   3.461  0.1676  0.2924  0.6373
21456SOL    HW165809   1.445   1.019   3.503 -1.3747 -2.5510 -0.7169
21456SOL    HW265810   1.531   0.903   3.459  1.4729  0.2420 -2.9318
21457SOL     OW65811   5.421   0.780   3.781  0.0159  0.2187  0.1341
21457SOL    HW165812   5.492   0.753   3.722  0.6210  0.6861  0.6344
21457SOL    HW265813   5.459   0.775   3.869 -1.6768 -3.2282  0.8666
21458SOL     OW65814   1.464   1.825   5.537  0.8931 -0.1138 -0.0555
21458SOL    HW165815   1.526   1.892   5.509  0.4811 -0.0374 -0.8111
21458SOL    HW265816   1.508   1.782   5.611  2.0053 -0.3035 -0.7988
21459SOL     OW65817   3.621   6.331   0.724 -0.1962 -0.0427  0.7321
21459SOL    HW165818   3.528   6.339   0.745 -0.4464  0.4428 -0.4643
21459SOL    HW265819   3.623   6.322   0.629  1.0441  1.0347  0.6356
21460SOL     OW65820   1.378   0.001   4.646 -0.2487 -0.2500 -0.3267
21460SOL    HW165821   1.396  -0.077   4.699 -1.2810  1.0389  2.0914
21460SOL    HW265822   1.464   0.043   4.636 -0.2031  0.2754  1.7603
21461SOL     OW65823   2.632   1.613   6.560  0.4516  0.4592 -0.2768
21461SOL    HW165824   2.561   1.559   6.527  1.5134 -0.3867 -1.2447
21461SOL    HW265825   2.698   1.551   6.591 -0.3245  1.1786  3.3194
21462SOL     OW65826   2.265   0.577   9.174  0.2365 -0.6015 -0.9381
21462SOL    HW165827   2.290   0.491   9.140 -0.5514 -0.7373 -1.1797
21462SOL    HW265828   2.223   0.621   9.100  0.3236 -0.1361 -0.7155
21463SOL     OW65829   2.475   0.783   2.601  0.7273  0.3424  0.3531
21463SOL    HW165830   2.415   0.711   2.622 -0.0898  1.0308  0.4276
21463SOL    HW265831   2.476   0.785   2.505 -0.8978  1.5359  0.3186
21464SOL     OW65832   2.142   5.383   5.189 -0.2401  0.0706  0.3050
21464SOL    HW165833   2.185   5.305   5.153 -1.1138 -1.1473  1.7741
21464SOL    HW265834   2.129   5.440   5.114 -0.7120 -1.7398 -1.0587
21465SOL     OW65835   2.804   7.208   1.115  0.0804 -0.1214 -0.5240
21465SOL    HW165836   2.728   7.223   1.171  0.0215  0.0823 -0.6587
21465SOL    HW265837   2.879   7.226   1.171  0.0069  1.3793 -0.8737
21466SOL     OW65838   7.472   5.262  11.786  0.3233  0.2139 -0.3030
21466SOL    HW165839   7.386   5.221  11.795  0.9134 -1.1710 -0.7119
21466SOL    HW265840   7.453   5.352  11.759 -0.9936 -0.4821 -1.8893
21467SOL     OW65841   7.508   1.610  12.028  0.3321 -0.3357  0.0063
21467SOL    HW165842   7.556   1.688  12.055 -2.2393  0.7564  1.7611
21467SOL    HW265843   7.531   1.544  12.094  2.0444 -0.9427 -1.1424
21468SOL     OW65844   3.886   2.585  10.237 -0.1244 -0.5003 -0.0517
21468SOL    HW165845   3.843   2.515  10.189 -2.0817  0.4489  0.2178
21468SOL    HW265846   3.953   2.541  10.290 -1.4463 -2.1971  0.2874
21469SOL     OW65847   7.889   3.721   8.385 -0.0233 -0.5722  0.0123
21469SOL    HW165848   7.838   3.691   8.311 -0.7367 -4.4299  1.8323
21469SOL    HW265849   7.969   3.669   8.382  0.6746  0.3780  1.0782
21470SOL     OW65850   5.293   2.487   3.471 -0.7577 -1.0001 -0.0746
21470SOL    HW165851   5.262   2.505   3.382 -0.9755 -1.6695 -0.1365
21470SOL    HW265852   5.285   2.393   3.481  0.5113 -1.0944  0.2044
21471SOL     OW65853   7.303   5.904  10.958 -0.4739  0.5583  0.3930
21471SOL    HW165854   7.218   5.864  10.977 -0.1812 -1.0540 -1.4238
21471SOL    HW265855   7.302   5.987  11.007 -2.8263  0.2966  0.9041
21472SOL     OW65856   2.753   7.565  10.651  0.8187 -0.1226  0.1960
21472SOL    HW165857   2.706   7.481  10.643  0.6437 -0.3730  2.9166
21472SOL    HW265858   2.844   7.541  10.663  1.2631  0.2567 -2.0304
21473SOL     OW65859   5.228   7.315   5.422 -0.2771 -0.1564 -0.3662
21473SOL    HW165860   5.143   7.272   5.412  0.0933 -0.7338 -1.2149
21473SOL    HW265861   5.269   7.270   5.496 -0.5969 -0.0769 -0.1423
21474SOL     OW65862   6.848   7.308   4.984 -0.5064 -0.0230 -0.2949
21474SOL    HW165863   6.813   7.304   5.073  0.8149  1.7831  0.3796
21474SOL    HW265864   6.941   7.325   4.996 -0.2574 -0.0053 -2.0321
21475SOL     OW65865   1.945   7.390  11.239 -0.3659 -0.3398 -0.6096
21475SOL    HW165866   1.853   7.363  11.245 -0.5402  0.2073 -0.6944
21475SOL    HW265867   1.962   7.434  11.323  0.3499 -1.9784  0.1449
21476SOL     OW65868   3.712   2.718  10.533  0.3339  0.6472  0.4850
21476SOL    HW165869   3.723   2.747  10.443  0.6524 -0.8236  0.0167
21476SOL    HW265870   3.764   2.637  10.538 -2.6206 -1.3802  0.8936
21477SOL     OW65871   7.673   2.174  10.036  0.4199 -0.4569 -0.3979
21477SOL    HW165872   7.601   2.188   9.974 -0.4776  0.8895  0.9135
21477SOL    HW265873   7.703   2.262  10.059  1.7942 -0.9768 -0.0884
21478SOL     OW65874   6.652   5.758  10.851 -0.3212 -0.1760  0.2277
21478SOL    HW165875   6.678   5.772  10.760 -0.0122 -0.6897  0.2330
21478SOL    HW265876   6.558   5.744  10.847 -0.3651  0.1598  0.0271
21479SOL     OW65877   5.345   7.535  12.177  0.5020  0.2991  0.5760
21479SOL    HW165878   5.364   7.627  12.158 -3.3266  1.5515  1.8858
21479SOL    HW265879   5.264   7.517  12.128  1.8377 -2.8945 -0.7231
21480SOL     OW65880   7.263   0.570   4.027 -0.0687 -0.0521 -0.2811
21480SOL    HW165881   7.352   0.559   4.061 -0.2389  0.7060  0.4434
21480SOL    HW265882   7.211   0.503   4.070  0.1320 -0.4547 -0.6570
21481SOL     OW65883   1.304   1.167   7.771 -0.2454  0.1609 -0.5043
21481SOL    HW165884   1.246   1.234   7.734 -0.4569  0.2495 -0.0270
21481SOL    HW265885   1.352   1.132   7.696  0.5106  1.4617 -0.6602
21482SOL     OW65886   3.719   7.882   5.800 -0.4539 -0.1392 -0.4255
21482SOL    HW165887   3.710   7.952   5.865  0.0052 -0.7670  0.3283
21482SOL    HW265888   3.684   7.920   5.720 -1.0604  0.6476  0.1870
21483SOL     OW65889   4.474   7.614  10.085  0.0835 -0.5438 -0.4029
21483SOL    HW165890   4.436   7.578  10.164  1.2968 -0.3176  0.3122
21483SOL    HW265891   4.569   7.610  10.100  0.3098  0.4010 -1.4361
21484SOL     OW65892   1.898   5.289   0.443  0.6728 -0.5500 -0.4634
21484SOL    HW165893   1.901   5.384   0.440  0.6636 -0.5604 -0.8913
21484SOL    HW265894   1.905   5.262   0.352  0.5951 -0.9575 -0.3514
21485SOL     OW65895   6.536   1.767   5.960 -0.1789  0.4921 -0.3484
21485SOL    HW165896   6.485   1.765   6.041 -0.8008 -1.5682 -0.7393
21485SOL    HW265897   6.480   1.725   5.895  1.5686 -0.8899 -1.0532
21486SOL     OW65898   7.940   4.008   8.006 -0.1459 -0.3881 -0.2274
21486SOL    HW165899   7.913   4.047   7.923 -0.2336 -2.4273 -1.1916
21486SOL    HW265900   7.875   4.040   8.069 -2.1283 -1.4975 -1.6058
21487SOL     OW65901   4.996   6.115   2.783  0.0536  0.2283 -0.1590
21487SOL    HW165902   4.971   6.041   2.728  0.7628 -0.3057  0.2188
21487SOL    HW265903   4.913   6.154   2.809 -0.3011  0.5826 -1.7129
21488SOL     OW65904   7.108   6.058   0.652  0.1007 -0.1351  0.1466
21488SOL    HW165905   7.129   6.081   0.743 -0.3730  0.3317  0.1416
21488SOL    HW265906   7.029   6.005   0.658 -0.1356  0.1927 -0.0125
21489SOL     OW65907   1.077   0.863  11.019 -0.1660  0.2699 -0.9379
21489SOL    HW165908   1.056   0.894  11.107  0.4297 -0.0213 -0.6894
21489SOL    HW265909   1.017   0.790  11.005  0.1379 -0.0640 -0.5352
21490SOL     OW65910   5.575   7.520   0.577 -0.6272 -0.4786  0.2493
21490SOL    HW165911   5.658   7.506   0.531 -0.0006  0.2089  1.1617
21490SOL    HW265912   5.581   7.464   0.654 -0.9281 -0.2703  0.4238
21491SOL     OW65913   7.899   5.628  11.603 -0.2764  0.8438  0.3856
21491SOL    HW165914   7.896   5.539  11.566  0.9373  1.8382 -2.4235
21491SOL    HW265915   7.807   5.649  11.622 -0.6701 -0.7210  0.3644
21492SOL     OW65916   6.934   7.807   6.429  0.6612 -0.0108  0.6940
21492SOL    HW165917   6.950   7.899   6.408 -1.4066 -0.0525 -1.4745
21492SOL    HW265918   7.006   7.760   6.387 -2.0018  0.1468 -4.9970
21493SOL     OW65919   4.866   3.103   0.325 -0.2246 -0.0834  0.4634
21493SOL    HW165920   4.808   3.146   0.387 -0.2021  1.2335 -0.3623
21493SOL    HW265921   4.811   3.086   0.248 -0.3060 -1.8734  0.8762
21494SOL     OW65922   4.951   3.752   8.127 -0.0208  0.5313  0.0172
21494SOL    HW165923   4.896   3.675   8.116 -1.3132  1.1607  1.6475
21494SOL    HW265924   4.955   3.792   8.040 -0.4546 -0.6335 -0.5429
21495SOL     OW65925   7.591   3.429   4.073 -0.5041  0.1957  0.3254
21495SOL    HW165926   7.624   3.481   4.146 -1.5160  0.9472  0.2676
21495SOL    HW265927   7.527   3.485   4.030  0.3217 -0.1004 -1.3725
21496SOL     OW65928   7.403   5.597   8.699  0.1077 -0.6641  0.8271
21496SOL    HW165929   7.455   5.602   8.779 -1.9273  2.2303  2.1375
21496SOL    HW265930   7.321   5.554   8.727  0.0080 -1.1130 -0.1271
21497SOL     OW65931   2.443   1.699   5.756 -0.3929  0.4908 -0.4728
21497SOL    HW165932   2.386   1.760   5.801  1.7624  2.8730 -0.7365
21497SOL    HW265933   2.395   1.674   5.677 -2.0719  0.3471  0.5575
21498SOL     OW65934   4.276   1.744   6.475 -0.4902 -0.4768  0.2082
21498SOL    HW165935   4.256   1.682   6.405  0.8971 -2.7968  1.7228
21498SOL    HW265936   4.191   1.776   6.505 -1.1577 -0.5054 -1.5825
21499SOL     OW65937   5.634   0.259   0.958  0.1422  0.1649  0.5509
21499SOL    HW165938   5.671   0.343   0.987 -1.8521  1.1969  0.3224
21499SOL    HW265939   5.691   0.231   0.887 -0.5824  2.7483 -1.2191
21500SOL     OW65940   1.903   2.136   4.491 -0.2137 -0.0435  0.3893
21500SOL    HW165941   1.974   2.153   4.553 -0.2058  0.9506  0.1243
21500SOL    HW265942   1.932   2.059   4.442  1.1520  0.9293 -0.3988
21501SOL     OW65943   5.237   2.788   2.872 -0.2251 -0.4986 -0.6181
21501SOL    HW165944   5.160   2.814   2.922  0.1991 -0.9765  0.3314
21501SOL    HW265945   5.309   2.838   2.912  0.2143 -1.3227 -0.3407
21502SOL     OW65946   3.634   4.948   5.152 -0.2699 -0.4187 -0.4145
21502SOL    HW165947   3.678   4.869   5.182 -1.3699 -0.6136  0.7765
21502SOL    HW265948   3.541   4.924   5.150 -0.9257  1.4825  2.3167
21503SOL     OW65949   7.011   4.632   7.483 -0.3053  0.1379 -0.2742
21503SOL    HW165950   6.968   4.548   7.495 -0.5696  0.2610 -0.3442
21503SOL    HW265951   7.036   4.633   7.390  0.8826 -0.4145  0.0316
21504SOL     OW65952   5.188   4.413  11.145 -0.5207 -0.3700  0.2719
21504SOL    HW165953   5.191   4.432  11.051  0.3014 -1.4101  0.0753
21504SOL    HW265954   5.129   4.338  11.154  0.7679 -1.4118  0.3593
21505SOL     OW65955   5.710   3.581   1.448  0.3014 -0.9347 -0.3504
21505SOL    HW165956   5.628   3.612   1.487  1.3366 -0.4257  1.5239
21505SOL    HW265957   5.688   3.495   1.411 -1.2884 -0.3932 -0.7286
21506SOL     OW65958   5.799   2.212   4.607 -0.4016  0.0027 -0.4053
21506SOL    HW165959   5.894   2.214   4.599 -0.2223  1.5857  1.4352
21506SOL    HW265960   5.767   2.231   4.519  0.8901 -2.0346 -1.4047
21507SOL     OW65961   7.632   0.485   7.106 -0.5659  0.3790  0.0477
21507SOL    HW165962   7.569   0.485   7.178  0.4253  0.2033  0.9445
21507SOL    HW265963   7.657   0.577   7.096 -0.0393  0.2924  0.5373
21508SOL     OW65964   6.121   7.829   8.092  0.3027 -0.0952 -0.1643
21508SOL    HW165965   6.030   7.824   8.061 -0.1287  0.2658  0.9913
21508SOL    HW265966   6.117   7.796   8.182  1.9424 -3.5297 -1.1798
21509SOL     OW65967   5.290   0.971   1.186  0.5189 -0.4963  0.2817
21509SOL    HW165968   5.329   0.970   1.099  1.0726  0.3337  0.5165
21509SOL    HW265969   5.290   0.879   1.213 -1.0418 -1.0042 -1.1861
21510SOL     OW65970   0.866   1.496   8.101 -0.2576  0.4596  0.1610
21510SOL    HW165971   0.903   1.580   8.128 -0.4930  0.4259  0.5977
21510SOL    HW265972   0.806   1.518   8.029  0.4081  0.5434 -0.3759
21511SOL     OW65973   6.236   1.128   3.144  0.8675 -0.1721 -0.1165
21511SOL    HW165974   6.181   1.206   3.132 -0.3434 -0.7558  1.3296
21511SOL    HW265975   6.307   1.157   3.201  0.9343  0.0880 -0.3297
21512SOL     OW65976   2.329   2.999  11.134  0.0230  0.7278 -0.1083
21512SOL    HW165977   2.377   2.992  11.052  0.7052 -1.5105  0.4135
21512SOL    HW265978   2.389   3.044  11.194  0.7863 -0.3977  0.0086
21513SOL     OW65979   2.444   0.244   9.361  0.4557  0.0933  0.2465
21513SOL    HW165980   2.453   0.276   9.271  2.9592 -0.8940  0.0421
21513SOL    HW265981   2.504   0.169   9.366 -1.5862 -1.5592  2.0321
21514SOL     OW65982   6.723   2.460   5.161 -0.2130  0.0258 -0.1411
21514SOL    HW165983   6.771   2.481   5.241  0.4653  0.7365 -0.7098
21514SOL    HW265984   6.737   2.536   5.105 -0.3307 -0.6362 -1.0905
21515SOL     OW65985   4.594   4.603   2.033 -0.9384  0.4035  0.1969
21515SOL    HW165986   4.588   4.651   2.115 -0.5138 -0.5936  0.8315
21515SOL    HW265987   4.616   4.670   1.968  0.5568  0.9476  1.2035
21516SOL     OW65988   2.705   2.116  11.143 -0.4257  0.1119 -0.1277
21516SOL    HW165989   2.790   2.145  11.177 -0.6503  0.6431 -0.0187
21516SOL    HW265990   2.706   2.139  11.051  0.7567 -2.5944 -0.8981
21517SOL     OW65991   4.621   3.380   3.824 -0.0338  0.2756  0.2019
21517SOL    HW165992   4.652   3.426   3.746  1.6074 -0.9670  0.0768
21517SOL    HW265993   4.525   3.383   3.818 -0.0157 -1.6604 -3.0324
21518SOL     OW65994   2.406   2.546  10.351  0.5226  0.0290 -0.0626
21518SOL    HW165995   2.379   2.602  10.424 -1.0921 -0.2859 -0.3733
21518SOL    HW265996   2.415   2.459  10.390  2.2033  0.3074  0.2490
21519SOL     OW65997   2.318   2.491   0.734 -0.1893 -0.1198  0.4457
21519SOL    HW165998   2.312   2.537   0.818  2.3391  0.3716  0.4271
21519SOL    HW265999   2.373   2.414   0.753  1.7437  0.8101 -1.0152
21520SOL     OW66000   0.890   7.350   7.944  0.7609  0.5098  0.4472
21520SOL    HW166001   0.818   7.342   8.008  0.7039  0.6668  0.4031
21520SOL    HW266002   0.966   7.372   7.997  0.6806  0.7980  0.4464
21521SOL     OW66003   1.624   4.623   8.503 -0.5606  0.9160  0.2216
21521SOL    HW166004   1.546   4.574   8.477 -0.0683  0.5900 -0.7012
21521SOL    HW266005   1.691   4.555   8.516 -0.4435  1.1820  1.1093
21522SOL     OW66006   2.137   0.798   0.932  0.5561  0.2136 -0.0031
21522SOL    HW166007   2.193   0.740   0.982  0.2664 -0.8139 -0.8277
21522SOL    HW266008   2.163   0.784   0.841  1.2066  2.1749 -0.1663
21523SOL     OW66009   0.969   6.023  10.761 -0.3119  0.6683  0.0723
21523SOL    HW166010   1.049   6.023  10.710 -0.7068  2.9730 -0.6764
21523SOL    HW266011   0.969   5.940  10.808  2.6296  0.7228  0.3064
21524SOL     OW66012   7.255   1.280   4.374 -0.3104  0.5149 -0.3264
21524SOL    HW166013   7.207   1.307   4.453 -0.4467 -0.9924  0.1312
21524SOL    HW266014   7.337   1.330   4.378 -1.2591  2.1498 -0.4342
21525SOL     OW66015   1.187   2.886   9.998  0.8151  0.1808 -0.3670
21525SOL    HW166016   1.264   2.876   9.942  1.0755  0.2971 -0.0309
21525SOL    HW266017   1.221   2.882  10.087  0.3201 -0.6887 -0.2026
21526SOL     OW66018   1.759   1.844   8.076 -0.0879  0.0702  0.2014
21526SOL    HW166019   1.780   1.834   7.983 -0.4798  0.0224  0.1173
21526SOL    HW266020   1.769   1.938   8.093  1.8611 -0.1474  0.5717
21527SOL     OW66021   6.781   7.121  11.097  0.3523 -0.1630 -0.1867
21527SOL    HW166022   6.832   7.177  11.038 -0.2006 -0.4088 -0.9266
21527SOL    HW266023   6.694   7.120  11.058 -0.0360 -0.3144  0.6671
21528SOL     OW66024   7.248   1.304   9.702 -0.6125  0.2982 -0.2250
21528SOL    HW166025   7.171   1.359   9.690 -0.4835  0.5872  0.2515
21528SOL    HW266026   7.265   1.269   9.614 -0.9883  0.6250 -0.4377
21529SOL     OW66027   7.835   6.505   1.609 -0.2342 -0.0650 -0.3341
21529SOL    HW166028   7.797   6.592   1.601 -2.1570 -0.7222  0.9906
21529SOL    HW266029   7.865   6.484   1.520  0.0456  1.8012 -0.7323
21530SOL     OW66030   5.544   3.781  10.495 -0.2869  0.2037 -0.0470
21530SOL    HW166031   5.461   3.793  10.540  0.2200 -0.3898  1.0964
21530SOL    HW266032   5.534   3.828  10.412 -1.6200  0.4386  0.2280
21531SOL     OW66033   0.283   3.464   4.586 -0.3653 -0.6963  0.0613
21531SOL    HW166034   0.214   3.398   4.581 -0.8966 -0.3348  1.7401
21531SOL    HW266035   0.246   3.533   4.642  1.2220 -0.3348  0.7345
21532SOL     OW66036   1.485   4.564   9.730  0.6227  0.0628  0.5227
21532SOL    HW166037   1.407   4.523   9.693  0.1435 -0.6261  2.2043
21532SOL    HW266038   1.452   4.625   9.796  1.4895  0.3939  0.6728
21533SOL     OW66039   4.457   2.138   4.172 -0.2405  0.3449  0.0545
21533SOL    HW166040   4.431   2.152   4.081 -1.2693 -1.1198  0.0910
21533SOL    HW266041   4.375   2.120   4.218  0.3230  0.5380  1.1832
21534SOL     OW66042   2.835   3.974  11.508  0.2597 -0.4661  0.5958
21534SOL    HW166043   2.857   3.889  11.547 -0.6530 -0.1292  1.9183
21534SOL    HW266044   2.766   3.955  11.445 -0.0708 -0.6926  1.0204
21535SOL     OW66045   1.626   0.880   9.591  0.1875  0.3713  0.0211
21535SOL    HW166046   1.673   0.930   9.525  2.3764 -0.8282  0.5877
21535SOL    HW266047   1.691   0.819   9.626 -1.3878 -0.2689  2.0089
21536SOL     OW66048   3.938   3.234   1.656 -0.0314 -0.0479 -0.1425
21536SOL    HW166049   3.910   3.250   1.566 -0.9977 -1.6232 -0.1493
21536SOL    HW266050   4.021   3.282   1.664  0.5740 -0.6534 -2.1675
21537SOL     OW66051   2.988   2.694   7.615 -0.4868 -0.2505  0.3201
21537SOL    HW166052   2.896   2.671   7.625 -0.5627 -0.6204 -1.0236
21537SOL    HW266053   2.994   2.735   7.528  0.8910 -1.8633 -0.4117
21538SOL     OW66054   4.046   7.051   8.234  0.0368  0.0595  0.3520
21538SOL    HW166055   3.985   7.121   8.256 -0.5433 -0.6329  1.0111
21538SOL    HW266056   3.992   6.972   8.232  0.3851 -0.1877 -1.9141
21539SOL     OW66057   6.397   3.424   7.696  0.4484  0.4847 -0.2729
21539SOL    HW166058   6.362   3.513   7.699  0.2574  0.3802  1.3270
21539SOL    HW266059   6.491   3.435   7.712  0.4361  0.4183 -0.1488
21540SOL     OW66060   3.654   5.475   2.550 -0.1007  0.1939  0.1158
21540SOL    HW166061   3.597   5.418   2.499  0.0371 -0.0224  0.1998
21540SOL    HW266062   3.595   5.525   2.607 -0.1987 -0.0800  0.2537
21541SOL     OW66063   6.888   7.198  10.278  0.5367 -0.3778 -0.4250
21541SOL    HW166064   6.960   7.234  10.330  0.1655  0.4949 -0.4882
21541SOL    HW266065   6.922   7.115  10.245  1.5297  0.0284 -0.4836
21542SOL     OW66066   7.702   5.150   2.679  0.9453 -0.9019 -0.4535
21542SOL    HW166067   7.647   5.101   2.619  1.5789 -1.2981 -0.7242
21542SOL    HW266068   7.712   5.236   2.637  0.5327 -0.8254 -0.3972
21543SOL     OW66069   7.189   5.696   3.265  0.0833  0.2726 -0.2726
21543SOL    HW166070   7.205   5.669   3.356 -0.1459  1.4269  0.1357
21543SOL    HW266071   7.226   5.784   3.260  0.0448  0.2404 -1.2914
21544SOL     OW66072   7.805   1.186   9.328  0.2269 -0.1959  0.5079
21544SOL    HW166073   7.748   1.204   9.403  0.4702  1.1263  0.3964
21544SOL    HW266074   7.834   1.272   9.299  3.5795 -0.8307  1.5500
21545SOL     OW66075   2.930   0.366   6.447  0.0504 -0.2215 -0.3121
21545SOL    HW166076   2.908   0.278   6.418  1.0256 -0.4918 -0.2679
21545SOL    HW266077   2.958   0.411   6.367 -1.1967  0.3095 -0.4790
21546SOL     OW66078   1.956   2.022   4.822 -0.3989 -0.1399 -0.3039
21546SOL    HW166079   1.916   1.947   4.778 -1.2990  0.3640 -0.3664
21546SOL    HW266080   1.883   2.077   4.848  0.2772  1.5087 -1.6566
21547SOL     OW66081   5.038   2.180   1.314 -0.6976 -0.2819 -1.0608
21547SOL    HW166082   5.101   2.123   1.358  1.2059  1.5455 -1.2766
21547SOL    HW266083   5.065   2.179   1.222 -1.4060 -0.0071 -1.2782
21548SOL     OW66084   0.997   0.297   2.233 -0.2677 -0.2969 -0.2443
21548SOL    HW166085   0.959   0.360   2.172 -1.0554  0.9156  1.4206
21548SOL    HW266086   1.084   0.278   2.198 -0.4277  0.9053 -1.3446
21549SOL     OW66087   4.808   4.269  10.403  0.1067 -0.0405  0.5579
21549SOL    HW166088   4.756   4.334  10.450 -0.7843  0.3719 -0.9442
21549SOL    HW266089   4.873   4.321  10.355  0.6325 -0.4162  0.8451
21550SOL     OW66090   1.547   2.923  11.417 -0.0613 -0.3206  0.1685
21550SOL    HW166091   1.567   3.008  11.457 -0.9021 -0.1819  0.3198
21550SOL    HW266092   1.589   2.859  11.474  1.6058  0.0383 -0.6102
21551SOL     OW66093   1.766   7.628  10.740 -0.3582 -0.5966 -0.2002
21551SOL    HW166094   1.796   7.544  10.706  0.7760 -0.3150  0.0797
21551SOL    HW266095   1.793   7.691  10.674  0.1694 -0.2685  0.3260
21552SOL     OW66096   0.628   2.908   8.663  0.1431 -0.2128  0.2766
21552SOL    HW166097   0.541   2.925   8.698  0.6759  1.6107  0.8253
21552SOL    HW266098   0.686   2.914   8.739  0.8326 -0.6813 -0.2057
21553SOL     OW66099   5.187   2.142   9.794 -0.4899 -0.2667 -0.0035
21553SOL    HW166100   5.257   2.084   9.762 -1.3034 -0.6839 -1.0890
21553SOL    HW266101   5.223   2.230   9.785 -1.0884 -0.2423 -3.3683
21554SOL     OW66102   4.519   1.708  10.429 -0.0004 -0.3935 -0.2326
21554SOL    HW166103   4.500   1.685  10.338  0.8674 -0.0868 -0.4924
21554SOL    HW266104   4.440   1.752  10.459 -0.7265 -1.4664 -0.4933
21555SOL     OW66105   5.232   1.277   3.375  0.1176  0.5884 -0.5198
21555SOL    HW166106   5.159   1.336   3.357 -0.0478 -0.1863 -2.6693
21555SOL    HW266107   5.231   1.266   3.470 -1.3991  2.0388 -0.3224
21556SOL     OW66108   3.283   3.400   0.618  0.3111  0.3891 -0.3498
21556SOL    HW166109   3.211   3.416   0.557  0.2214  0.4288 -0.2338
21556SOL    HW266110   3.293   3.482   0.666  1.5845  0.9792 -1.5610
21557SOL     OW66111   6.957   5.809   3.673  0.1921 -0.1942 -0.4324
21557SOL    HW166112   6.908   5.771   3.601 -0.0727 -0.9141  0.1198
21557SOL    HW266113   7.015   5.873   3.632 -1.2934  0.7791 -1.0831
21558SOL     OW66114   2.014   6.166  11.946 -0.1118 -0.4483 -0.5271
21558SOL    HW166115   1.931   6.178  11.901  0.5514  0.0304 -1.6718
21558SOL    HW266116   1.996   6.101  12.015 -1.1336 -1.3042 -1.5733
21559SOL     OW66117   5.057   6.478   7.893  0.2446 -0.8497  0.0955
21559SOL    HW166118   5.060   6.566   7.932  1.5729 -1.4314  1.4108
21559SOL    HW266119   5.088   6.491   7.803 -0.8831  0.2146 -0.1730
21560SOL     OW66120   0.899   7.830   4.800  0.1804 -0.0992 -0.1239
21560SOL    HW166121   0.866   7.894   4.738 -0.7372 -0.5342 -0.0969
21560SOL    HW266122   0.977   7.793   4.758 -1.4219 -1.6930 -1.8807
21561SOL     OW66123   5.655   0.821   6.672 -0.4696 -0.3692  0.4169
21561SOL    HW166124   5.611   0.862   6.747 -1.1145  1.0111 -0.6535
21561SOL    HW266125   5.748   0.835   6.688 -0.5798 -0.4106  1.1354
21562SOL     OW66126   4.163   4.560   2.069 -0.3089  0.1938  0.3520
21562SOL    HW166127   4.206   4.635   2.111 -0.9092  0.1822  1.0184
21562SOL    HW266128   4.159   4.493   2.137 -2.7480  0.7416  0.8454
21563SOL     OW66129   2.697   5.862   8.044 -0.1419 -0.2202 -0.9527
21563SOL    HW166130   2.639   5.885   7.971 -0.2060  0.0059 -0.8334
21563SOL    HW266131   2.776   5.828   8.003 -0.3938 -0.6156 -1.1177
21564SOL     OW66132   6.767   5.664   3.019 -0.3998  0.1725  0.0972
21564SOL    HW166133   6.731   5.668   2.931 -0.0437 -1.2731 -0.1365
21564SOL    HW266134   6.767   5.755   3.049 -0.0526  0.7673 -1.5858
21565SOL     OW66135   2.945   7.259   0.818 -0.5177 -0.4504 -0.2685
21565SOL    HW166136   2.915   7.174   0.850 -0.0959 -0.6773 -0.4716
21565SOL    HW266137   3.000   7.238   0.742  0.8980 -0.1172  0.6227
21566SOL     OW66138   3.568   1.640   9.795  0.5666 -0.3143  0.8258
21566SOL    HW166139   3.564   1.583   9.718 -0.7738 -0.6720  1.1267
21566SOL    HW266140   3.633   1.600   9.852  2.0320  0.2789 -0.3344
21567SOL     OW66141   6.774   6.197   2.394 -0.7857  0.1793 -0.0824
21567SOL    HW166142   6.869   6.188   2.384 -0.9286  0.4125 -1.8295
21567SOL    HW266143   6.749   6.122   2.449  0.0546 -1.4794 -1.8603
21568SOL     OW66144   1.252   1.171  11.275  0.2167  0.6422  0.0166
21568SOL    HW166145   1.219   1.238  11.333 -0.9554  0.5440 -0.5151
21568SOL    HW266146   1.194   1.096  11.288  1.4135 -0.2324  0.4942
21569SOL     OW66147   0.606   7.960  10.151 -0.3295 -0.0928 -0.4503
21569SOL    HW166148   0.643   8.023  10.089  1.1165  0.7158  1.1623
21569SOL    HW266149   0.531   8.006  10.189  0.2297  0.3473  0.1293
21570SOL     OW66150   4.925   7.672   9.207 -0.1185  0.2745 -0.0975
21570SOL    HW166151   4.965   7.743   9.156 -0.0713  0.5120  0.2643
21570SOL    HW266152   4.986   7.657   9.279 -1.2653  1.5274  1.2028
21571SOL     OW66153   0.565   0.789   0.435  0.1639  0.1634 -0.2482
21571SOL    HW166154   0.568   0.698   0.405 -0.7794 -0.2894  0.9392
21571SOL    HW266155   0.577   0.841   0.355  0.1949 -0.9898 -1.0221
21572SOL     OW66156   7.010   3.241  11.555 -0.0059  0.4078  0.3212
21572SOL    HW166157   7.018   3.160  11.505 -0.0913  0.9036 -0.5140
21572SOL    HW266158   6.929   3.230  11.606 -1.0880  0.7372 -1.2621
21573SOL     OW66159   1.122   7.478   9.375  0.2362  0.2970  0.1900
21573SOL    HW166160   1.204   7.503   9.333  0.1149 -0.6539 -0.6480
21573SOL    HW266161   1.131   7.384   9.392 -1.2857 -0.2013 -1.4273
21574SOL     OW66162   7.122   3.616   8.318 -0.0108 -0.0631 -0.4804
21574SOL    HW166163   7.153   3.578   8.400  0.6536 -0.1520 -0.7671
21574SOL    HW266164   7.031   3.586   8.310  0.9896 -3.1881 -1.6171
21575SOL     OW66165   4.028   0.292   9.904  0.8389  0.2577  0.7280
21575SOL    HW166166   4.064   0.325   9.987  0.0729  0.4545  0.9904
21575SOL    HW266167   3.945   0.252   9.929  0.0133  1.4103 -0.1120
21576SOL     OW66168   0.069   5.000  11.024 -0.1762 -0.3834 -0.3666
21576SOL    HW166169   0.163   5.009  11.045 -0.0847 -1.6644 -0.1455
21576SOL    HW266170   0.055   4.906  11.017 -1.6293 -0.2601  0.4256
21577SOL     OW66171   7.234   2.793   3.019 -0.0525 -0.0665 -0.0557
21577SOL    HW166172   7.173   2.860   3.052  0.3603  0.4317 -0.2918
21577SOL    HW266173   7.222   2.795   2.924 -2.1070 -2.3264  0.0682
21578SOL     OW66174   7.827   4.389   2.886 -0.0774  0.3874 -0.3970
21578SOL    HW166175   7.815   4.400   2.792  1.6141  1.7038 -0.5056
21578SOL    HW266176   7.747   4.424   2.925 -0.5194  0.4267 -1.3255
21579SOL     OW66177   6.749   7.434   9.376 -0.3316  0.0842  0.3160
21579SOL    HW166178   6.790   7.374   9.314 -0.1181 -1.0431  1.5033
21579SOL    HW266179   6.702   7.378   9.437 -2.2332  1.2565  0.0364
21580SOL     OW66180   7.285   7.650   1.223 -0.0074  0.0799  0.2079
21580SOL    HW166181   7.297   7.685   1.134  0.1168  1.7865  0.8532
21580SOL    HW266182   7.308   7.723   1.280 -1.5572 -0.5046  1.6456
21581SOL     OW66183   7.488   4.494   6.772  0.1799  0.2653  0.0011
21581SOL    HW166184   7.574   4.516   6.735 -0.0891  1.8601  0.2303
21581SOL    HW266185   7.500   4.503   6.866 -0.3185  0.8527  0.0141
21582SOL     OW66186   5.013   7.951   2.721  0.0458 -0.0968 -0.5197
21582SOL    HW166187   5.052   7.902   2.648  1.2628  0.2208 -0.1003
21582SOL    HW266188   5.054   8.038   2.717 -0.0469  0.0032  0.4065
21583SOL     OW66189   1.158   6.636   6.980  0.3660  0.0811  0.1603
21583SOL    HW166190   1.077   6.589   6.964 -0.2791  0.2074  2.6959
21583SOL    HW266191   1.132   6.716   7.025  1.8699  0.1879  0.9254
21584SOL     OW66192   4.398   6.859   2.367 -0.7153  0.0537 -0.2212
21584SOL    HW166193   4.360   6.851   2.455 -0.2374 -0.2296 -0.0368
21584SOL    HW266194   4.459   6.932   2.374 -2.2079  1.4251 -0.8843
21585SOL     OW66195   1.355   0.116  10.747 -0.3374  0.4017  0.3581
21585SOL    HW166196   1.363   0.145  10.656 -1.6226 -2.0234 -0.6231
21585SOL    HW266197   1.278   0.164  10.780 -1.4853 -0.6068 -0.7275
21586SOL     OW66198   1.305   3.021  11.221  0.0339  0.0593  0.2779
21586SOL    HW166199   1.398   3.046  11.220 -0.2892  1.3773  0.9694
21586SOL    HW266200   1.279   3.022  11.129  0.2818  1.4137  0.2015
21587SOL     OW66201   1.670   0.556   5.273  0.2073 -0.8579 -0.5491
21587SOL    HW166202   1.617   0.541   5.351  0.2777  0.7142 -0.1607
21587SOL    HW266203   1.759   0.533   5.300  0.4662  0.9888  0.3158
21588SOL     OW66204   6.835   6.782   4.001 -0.3409 -0.2563  0.0329
21588SOL    HW166205   6.913   6.821   4.041  0.8434 -1.2166 -1.2285
21588SOL    HW266206   6.846   6.687   4.012  0.6506 -0.6783 -3.4122
21589SOL     OW66207   2.735   2.307  12.018 -0.1966 -0.2560 -0.1989
21589SOL    HW166208   2.696   2.377  11.967  3.6987  3.3018  1.1354
21589SOL    HW266209   2.794   2.263  11.958 -0.6908 -0.6769 -0.3843
21590SOL     OW66210   6.423   6.947   8.491  0.4154 -0.6876 -0.3523
21590SOL    HW166211   6.372   6.882   8.443 -0.8965 -0.4333  0.6333
21590SOL    HW266212   6.467   6.896   8.560 -0.7839 -0.5431  0.5553
21591SOL     OW66213   0.929   6.354   0.063 -0.3960  0.3767  0.2787
21591SOL    HW166214   0.902   6.445   0.075 -0.0334  0.6474 -0.8366
21591SOL    HW266215   1.021   6.352   0.091  0.7922  1.2518 -3.0904
21592SOL     OW66216   0.543   0.633   5.992 -0.3282 -0.1004  0.1561
21592SOL    HW166217   0.621   0.580   6.006 -0.0967  0.4255  0.8958
21592SOL    HW266218   0.506   0.599   5.910  0.4147 -0.6620  0.0380
21593SOL     OW66219   5.642   0.336   2.602 -0.3255 -0.1791 -0.2703
21593SOL    HW166220   5.612   0.427   2.597 -0.8317 -0.2482  1.0271
21593SOL    HW266221   5.562   0.284   2.601 -0.0485 -0.6117 -0.8128
21594SOL     OW66222   7.159   1.131   7.506 -0.5180 -0.1581  0.3026
21594SOL    HW166223   7.116   1.125   7.591  0.5713  0.8855  0.9546
21594SOL    HW266224   7.106   1.194   7.456 -1.1297 -0.7369  0.2102
21595SOL     OW66225   2.035   2.471   9.736 -0.6223  0.4202  0.0231
21595SOL    HW166226   2.062   2.507   9.652 -0.7049  1.2539  0.3364
21595SOL    HW266227   2.066   2.381   9.736 -1.6755  0.0245 -1.3859
21596SOL     OW66228   4.070   6.737   1.778  0.0680  0.1935 -0.6638
21596SOL    HW166229   4.010   6.712   1.848  2.0996 -1.5503  0.5437
21596SOL    HW266230   4.118   6.811   1.812  0.2086  0.1240 -0.7112
21597SOL     OW66231   5.665   3.256   8.901 -0.1978  0.0576  0.5552
21597SOL    HW166232   5.666   3.291   8.991  2.1493  0.4597  0.4429
21597SOL    HW266233   5.735   3.190   8.901  1.8000  2.0175 -1.6479
21598SOL     OW66234   6.495   0.027   6.292 -0.3821 -0.4426  0.5317
21598SOL    HW166235   6.536  -0.016   6.218 -0.7436 -3.3023  1.8696
21598SOL    HW266236   6.563   0.028   6.360  0.0532  2.4063  0.1980
21599SOL     OW66237   2.038   5.118   6.763  0.1723 -0.5820 -0.2269
21599SOL    HW166238   1.970   5.185   6.774 -0.2543 -1.1333  0.6467
21599SOL    HW266239   2.070   5.102   6.851  0.6360 -1.1509 -0.4925
21600SOL     OW66240   5.109   3.534   0.691  0.0441 -0.0444 -0.1834
21600SOL    HW166241   5.173   3.464   0.702 -2.8256 -2.7398  1.2322
21600SOL    HW266242   5.061   3.509   0.612 -0.9150  0.3803  0.2491
21601SOL     OW66243   4.318   2.512   0.097  0.1806  0.0043  1.0651
21601SOL    HW166244   4.267   2.514   0.016 -0.0456  1.1583  1.2300
21601SOL    HW266245   4.274   2.446   0.151  0.2141 -0.6281  0.3462
21602SOL     OW66246   1.049   5.744   1.163 -0.3230 -0.0065  0.7324
21602SOL    HW166247   0.991   5.808   1.122  0.2136 -0.6163 -1.0944
21602SOL    HW266248   0.993   5.667   1.176 -0.2591 -0.1413  0.2209
21603SOL     OW66249   4.778   3.094   9.916 -0.1257  0.2804 -0.4394
21603SOL    HW166250   4.837   3.100   9.841  0.1276 -1.6840 -0.4597
21603SOL    HW266251   4.701   3.047   9.882 -0.2953 -0.0440  0.3727
21604SOL     OW66252   7.410   2.532   1.554  0.5596  0.2123 -0.0133
21604SOL    HW166253   7.424   2.535   1.649 -1.5051  1.0375  0.3238
21604SOL    HW266254   7.316   2.517   1.544  1.1164 -2.6979 -1.9921
21605SOL     OW66255   7.568   2.683   0.018 -0.2555 -0.3238 -0.6191
21605SOL    HW166256   7.584   2.712  -0.072 -1.2537  0.0786 -0.6911
21605SOL    HW266257   7.574   2.588   0.014  1.7887 -0.2214 -0.6569
21606SOL     OW66258   4.075   3.094  10.144 -0.1322 -0.0457  0.1026
21606SOL    HW166259   4.090   3.001  10.162 -0.8896 -0.2833 -0.4525
21606SOL    HW266260   4.163   3.132  10.141  0.4182 -1.2914 -2.4869
21607SOL     OW66261   2.022   7.809   6.264 -0.1978 -0.1508  0.6006
21607SOL    HW166262   2.069   7.892   6.257  0.0676 -0.3180  0.3826
21607SOL    HW266263   1.936   7.833   6.299  0.2468  0.0856  1.5721
21608SOL     OW66264   0.552   5.953   7.656 -0.6619  0.3444  0.5889
21608SOL    HW166265   0.468   5.929   7.695 -0.7205  0.1209  0.3317
21608SOL    HW266266   0.609   5.969   7.730 -0.5353 -0.9088  0.7772
21609SOL     OW66267   5.311   1.288   9.722  0.1049 -0.2697  0.5118
21609SOL    HW166268   5.229   1.312   9.680 -0.2935 -0.9580  0.8910
21609SOL    HW266269   5.362   1.247   9.653  1.3571  2.7408 -0.5499
21610SOL     OW66270   2.882   6.807  10.844  0.1137  0.5635  0.4025
21610SOL    HW166271   2.812   6.872  10.840 -1.2622 -0.9102 -0.5740
21610SOL    HW266272   2.838   6.726  10.867  1.7964 -0.0741  1.6231
21611SOL     OW66273   5.203   1.070  10.373 -0.2305  0.0660 -0.7257
21611SOL    HW166274   5.197   1.005  10.303  2.2904 -3.2846  1.8623
21611SOL    HW266275   5.125   1.055  10.426  0.1130 -0.5533 -0.3891
21612SOL     OW66276   6.874   7.265  12.064 -0.0922  0.0594 -0.4974
21612SOL    HW166277   6.863   7.183  12.016 -2.2119  0.4894 -0.8568
21612SOL    HW266278   6.856   7.333  11.999  2.3762  0.8820 -0.3950
21613SOL     OW66279   3.062   0.464   1.125 -0.0387  0.0532 -0.2660
21613SOL    HW166280   3.149   0.480   1.162  0.0045  0.3097 -0.4822
21613SOL    HW266281   3.069   0.491   1.034 -0.2419 -0.2682 -0.3795
21614SOL     OW66282   3.078   3.471  10.269 -0.4980  0.0057 -0.7708
21614SOL    HW166283   3.110   3.425  10.192 -0.5797  1.2317 -1.5575
21614SOL    HW266284   3.156   3.485  10.323 -0.2105  0.3292 -1.2684
21615SOL     OW66285   2.559   2.488   4.663  0.0510 -0.4707 -0.1936
21615SOL    HW166286   2.532   2.435   4.738 -0.6273 -0.8186 -0.6751
21615SOL    HW266287   2.534   2.577   4.685  2.7754  0.0070  1.3993
21616SOL     OW66288   7.033   3.566   4.657 -0.0365 -0.2850 -0.1340
21616SOL    HW166289   7.039   3.480   4.614 -0.5535 -0.6010  0.4111
21616SOL    HW266290   7.090   3.622   4.605  0.6971 -1.0742 -0.2004
21617SOL     OW66291   0.576   1.257   1.190 -0.2049 -0.0184  0.7766
21617SOL    HW166292   0.545   1.230   1.104 -0.8005  0.4229  0.8450
21617SOL    HW266293   0.497   1.279   1.238  0.2029  3.8823  0.0378
21618SOL     OW66294   2.484   5.555   7.055  0.4173  0.2679  0.5916
21618SOL    HW166295   2.508   5.631   7.002 -1.4756  0.8064  0.4426
21618SOL    HW266296   2.408   5.518   7.011  0.6537 -1.0897  1.2794
21619SOL     OW66297   2.368   5.193   4.778  0.0886 -0.3980 -0.0328
21619SOL    HW166298   2.357   5.119   4.719  0.2619 -0.1687 -0.3505
21619SOL    HW266299   2.447   5.238   4.747  0.4930 -0.5821  0.6929
21620SOL     OW66300   0.113   2.792   2.823  0.2364 -0.2923 -0.0211
21620SOL    HW166301   0.021   2.774   2.840  0.2877 -0.3145  0.2449
21620SOL    HW266302   0.156   2.707   2.834  0.4323 -0.0833  0.8917
21621SOL     OW66303   0.442   4.965   8.791 -0.2705 -0.0072 -0.0547
21621SOL    HW166304   0.373   4.903   8.767 -0.1812  0.4578 -1.6080
21621SOL    HW266305   0.500   4.967   8.715  0.4887  0.9210  0.5325
21622SOL     OW66306   4.806   0.771   6.101 -0.1282 -0.1495  0.0564
21622SOL    HW166307   4.848   0.805   6.022  0.3904 -0.0791  0.3562
21622SOL    HW266308   4.872   0.783   6.170 -0.4449 -0.5314  0.4279
21623SOL     OW66309   1.001   1.657   9.251  0.3884  0.1985  0.0243
21623SOL    HW166310   0.933   1.627   9.192 -1.3409  1.0078  1.4981
21623SOL    HW266311   1.036   1.737   9.211  0.0801  0.0792 -0.4761
21624SOL     OW66312   6.909   4.278   9.847  0.3199 -0.1706 -0.1574
21624SOL    HW166313   6.881   4.264   9.756  0.4538  0.0767 -0.2393
21624SOL    HW266314   6.844   4.338   9.883  1.1972  1.0954 -0.6078
21625SOL     OW66315   2.563   6.035   9.931  0.2585 -0.0685  0.0850
21625SOL    HW166316   2.563   6.126   9.958  1.2012  0.6225 -1.9981
21625SOL    HW266317   2.501   6.030   9.858  0.4142 -1.0167 -0.0082
21626SOL     OW66318   0.593   6.396  10.927 -0.2440  0.7241 -0.3694
21626SOL    HW166319   0.518   6.350  10.890  0.2089  0.6711 -1.2599
21626SOL    HW266320   0.657   6.326  10.945 -1.2235  0.4523  2.5940
21627SOL     OW66321   5.617   1.521   8.428  0.0767  0.1297 -0.1659
21627SOL    HW166322   5.550   1.457   8.402  0.4727 -0.2046 -0.3627
21627SOL    HW266323   5.587   1.553   8.514  0.1413 -0.7016  0.1755
21628SOL     OW66324   1.180   3.596   6.144  0.3614  0.2435  0.1627
21628SOL    HW166325   1.254   3.565   6.196  0.9378  1.8722  0.3707
21628SOL    HW266326   1.104   3.550   6.181  1.1323 -0.7666  0.5436
21629SOL     OW66327   1.246   6.510   4.585  0.3357 -0.1158  0.3323
21629SOL    HW166328   1.218   6.419   4.586 -0.8115  0.2170 -0.4053
21629SOL    HW266329   1.251   6.533   4.492 -1.2323  1.1100  0.5234
21630SOL     OW66330   1.878   2.665   0.744  0.5476  0.3038  0.2392
21630SOL    HW166331   1.886   2.718   0.665 -0.7860  0.4909  0.2068
21630SOL    HW266332   1.921   2.582   0.722 -2.0235 -0.6520 -1.6578
21631SOL     OW66333   5.474   4.478   4.015  0.6309 -0.1633  0.3986
21631SOL    HW166334   5.403   4.439   4.066  0.4134  1.0376  1.0450
21631SOL    HW266335   5.430   4.526   3.945  0.8653 -0.3948  0.0865
21632SOL     OW66336   0.797   5.441   1.082  0.1030  0.5343  0.5969
21632SOL    HW166337   0.736   5.483   1.022  0.5099 -0.4651 -0.5796
21632SOL    HW266338   0.880   5.440   1.034  0.1302 -1.4625  0.5960
21633SOL     OW66339   3.090   7.016   7.930  0.2678  0.1529 -0.1898
21633SOL    HW166340   3.079   6.940   7.873  1.5628  0.3593 -0.7391
21633SOL    HW266341   3.011   7.067   7.916 -1.2795 -1.6864  1.1822
21634SOL     OW66342   4.349   7.824   3.290  0.6761  0.4737  0.2196
21634SOL    HW166343   4.380   7.903   3.335  0.7562 -0.1792  1.3483
21634SOL    HW266344   4.426   7.767   3.285  1.0683  1.1035 -2.1294
21635SOL     OW66345   1.469   1.265   9.600 -0.1293  0.4404 -0.6346
21635SOL    HW166346   1.429   1.348   9.623  0.1821  0.0314  1.6432
21635SOL    HW266347   1.448   1.207   9.673  2.8219 -0.3617 -0.2798
21636SOL     OW66348   6.664   6.322   8.007 -0.4635 -0.0524 -0.0941
21636SOL    HW166349   6.614   6.264   7.949  0.1536  1.1143 -1.8820
21636SOL    HW266350   6.629   6.409   7.989 -0.8322  0.2640  1.9652
21637SOL     OW66351   4.105   3.418   4.844 -0.1792  0.3863  0.0961
21637SOL    HW166352   4.094   3.372   4.927 -0.2768  0.6375  0.2238
21637SOL    HW266353   4.097   3.511   4.867  0.0282  0.4661 -0.1568
21638SOL     OW66354   2.224   2.902   7.540  0.4907 -0.3190  0.4477
21638SOL    HW166355   2.285   2.832   7.521  0.3775 -0.9781  2.3380
21638SOL    HW266356   2.269   2.982   7.512  0.8115 -1.0582 -1.2648
21639SOL     OW66357   5.219   2.689   9.762 -0.7349  0.0149 -0.4681
21639SOL    HW166358   5.283   2.636   9.811 -0.9306  0.5778  0.4066
21639SOL    HW266359   5.272   2.732   9.694 -0.1477  0.5287  0.2866
21640SOL     OW66360   1.121   7.909   9.794  0.1027  0.6557  0.0528
21640SOL    HW166361   1.189   7.867   9.742  0.1770  1.3691 -0.4357
21640SOL    HW266362   1.105   7.993   9.751 -2.1988 -0.1222 -0.7585
21641SOL     OW66363   6.497   2.613   6.692 -0.0663  0.1373  0.1528
21641SOL    HW166364   6.436   2.542   6.671  0.7677 -1.5415  2.8822
21641SOL    HW266365   6.441   2.686   6.716 -1.2694 -1.7256  3.8250
21642SOL     OW66366   3.671   5.921   3.673  0.0708  0.5590 -0.2078
21642SOL    HW166367   3.697   5.990   3.733  0.1397 -0.1255  0.5635
21642SOL    HW266368   3.618   5.965   3.607 -1.9252  0.9914  1.5800
21643SOL     OW66369   4.340   7.388   4.149  0.5786 -0.6009 -0.4429
21643SOL    HW166370   4.415   7.414   4.204  1.4956  0.8840 -2.2770
21643SOL    HW266371   4.354   7.295   4.131  0.6484 -0.9318  1.1916
21644SOL     OW66372   7.707   7.399  11.560 -1.0045  0.7211 -0.1852
21644SOL    HW166373   7.709   7.372  11.469 -0.6934 -0.5340  0.1746
21644SOL    HW266374   7.782   7.457  11.570 -2.1810  2.5168 -1.1812
21645SOL     OW66375   6.770   3.469   0.536 -0.3205  0.0661  0.1258
21645SOL    HW166376   6.742   3.390   0.582  1.5182  0.3826  1.9214
21645SOL    HW266377   6.725   3.540   0.581 -0.5017  0.2005 -0.2617
21646SOL     OW66378   3.377   0.657   2.110  0.2264 -0.6411  0.6651
21646SOL    HW166379   3.372   0.658   2.015 -1.3299 -2.1064  0.6833
21646SOL    HW266380   3.301   0.706   2.139  0.1901 -0.9728  1.1424
21647SOL     OW66381   2.028   4.010  11.221 -0.2652  0.3099 -0.0502
21647SOL    HW166382   1.985   3.928  11.243 -1.2464  0.6175 -0.7363
21647SOL    HW266383   2.120   3.996  11.242 -0.6936 -0.3682  1.4435
21648SOL     OW66384   0.253   0.935   9.586 -0.3181 -0.2302 -0.2646
21648SOL    HW166385   0.271   0.841   9.583 -1.9180 -0.8747  3.9855
21648SOL    HW266386   0.336   0.975   9.611  0.5403 -0.3233 -2.7390
21649SOL     OW66387   7.670   6.551   6.751 -0.6521  0.0842 -0.4367
21649SOL    HW166388   7.759   6.527   6.726 -0.2511  0.8598  0.2168
21649SOL    HW266389   7.630   6.470   6.782 -0.1246 -0.2314 -0.5890
21650SOL     OW66390   5.238   2.226   1.611 -0.0346  0.0922  0.1371
21650SOL    HW166391   5.287   2.263   1.537 -0.7324  1.0318  0.1271
21650SOL    HW266392   5.220   2.136   1.585 -1.6480  0.8369 -1.5666
21651SOL     OW66393   1.491   4.240   1.623 -0.4472 -0.1987 -0.5200
21651SOL    HW166394   1.485   4.323   1.576  1.0402 -0.0949 -0.5610
21651SOL    HW266395   1.561   4.253   1.687  0.9257 -1.8901 -1.5795
21652SOL     OW66396   3.148   5.848   0.833  0.7575 -0.5361  0.1591
21652SOL    HW166397   3.175   5.819   0.746 -2.0899 -0.7189 -0.7648
21652SOL    HW266398   3.174   5.777   0.891  1.0903 -1.2370 -0.8232
21653SOL     OW66399   0.734   7.026   0.500 -0.5715 -0.1864  0.1955
21653SOL    HW166400   0.666   6.966   0.470 -2.0495  0.5770  1.8439
21653SOL    HW266401   0.754   6.996   0.589  0.7647  0.0266 -0.0183
21654SOL     OW66402   2.997   6.308  10.135  0.1388 -0.3007  0.2440
21654SOL    HW166403   2.938   6.241  10.101  0.6479 -0.1833 -0.8945
21654SOL    HW266404   3.085   6.272  10.121  0.4246  0.6861 -0.5545
21655SOL     OW66405   7.613   1.571   9.134 -0.1045  0.3909  0.3627
21655SOL    HW166406   7.653   1.485   9.147 -1.0700 -0.0805  0.2927
21655SOL    HW266407   7.612   1.610   9.221 -1.0031 -0.2818  0.6680
21656SOL     OW66408   5.266   5.887   5.547 -0.6604 -0.8569 -0.1051
21656SOL    HW166409   5.185   5.937   5.548  0.2720  0.7113  0.7803
21656SOL    HW266410   5.250   5.815   5.608 -0.7286  0.5828  1.6429
21657SOL     OW66411   0.830   5.100   5.171 -0.3088  0.4894 -0.2146
21657SOL    HW166412   0.854   5.174   5.227 -0.3848  1.1411 -1.0193
21657SOL    HW266413   0.823   5.025   5.231  0.8754  0.8901  0.4494
21658SOL     OW66414   1.773   7.892   6.353  0.2596 -0.8119  0.4133
21658SOL    HW166415   1.779   7.981   6.387 -3.0395  0.3027 -1.4574
21658SOL    HW266416   1.732   7.841   6.423  2.7348 -1.1417  1.7339
21659SOL     OW66417   6.451   7.320  11.322 -0.4960  0.1440  0.1427
21659SOL    HW166418   6.372   7.371  11.302  0.3308  0.8182 -1.6313
21659SOL    HW266419   6.500   7.375  11.383  0.5038  1.7077 -1.9334
21660SOL     OW66420   6.449   5.790   0.618  1.5745  0.5984  0.3217
21660SOL    HW166421   6.444   5.710   0.670 -0.1618 -0.3732 -1.2148
21660SOL    HW266422   6.465   5.859   0.682 -1.0725 -0.4427  2.2886
21661SOL     OW66423   5.283   5.917   9.696 -0.7263  0.1817 -0.3006
21661SOL    HW166424   5.237   5.869   9.627 -0.4424  0.6361 -0.8175
21661SOL    HW266425   5.238   6.001   9.701 -0.6971  0.1790  0.0183
21662SOL     OW66426   1.053   3.010   5.205  0.1385 -0.0069  0.7805
21662SOL    HW166427   1.134   2.968   5.174 -0.4672 -0.3837 -0.3764
21662SOL    HW266428   1.079   3.099   5.227  1.0004 -0.3174  1.0588
21663SOL     OW66429   4.771   7.565  10.112  0.4197  1.0199  0.5252
21663SOL    HW166430   4.816   7.558  10.196 -0.3394  0.6058  0.9110
21663SOL    HW266431   4.841   7.584  10.049  0.9685  1.5512  1.2757
21664SOL     OW66432   6.843   4.691  10.531  0.4015  0.0953  0.4090
21664SOL    HW166433   6.876   4.762  10.586  0.6549  0.5553 -0.3178
21664SOL    HW266434   6.917   4.669  10.474 -0.4730  1.0212 -1.1401
21665SOL     OW66435   1.255   4.166  12.185  0.3698  0.6287  0.3023
21665SOL    HW166436   1.309   4.182  12.108  0.5114 -0.6721  0.1058
21665SOL    HW266437   1.187   4.233  12.181 -0.5412 -0.3297 -1.8350
21666SOL     OW66438   0.152   6.158  11.564 -0.5311  0.2677  0.0462
21666SOL    HW166439   0.122   6.248  11.577 -0.0223  0.3399  0.8335
21666SOL    HW266440   0.190   6.157  11.476  0.0935  1.0112  0.2947
21667SOL     OW66441   7.865   1.512   4.972  0.1511  0.2173 -0.2248
21667SOL    HW166442   7.928   1.440   4.977 -0.0219 -0.0343 -1.4422
21667SOL    HW266443   7.852   1.539   5.063  0.8917 -0.7033  0.1651
21668SOL     OW66444   6.265   3.280   6.913  0.4365  0.3256  0.5387
21668SOL    HW166445   6.355   3.249   6.924  1.2040  2.1915  0.0137
21668SOL    HW266446   6.235   3.238   6.832  1.6797  1.3951 -0.5310
21669SOL     OW66447   5.738   7.366   9.568  0.2683  0.4087 -0.5704
21669SOL    HW166448   5.787   7.444   9.591  0.6539  0.1579 -0.5267
21669SOL    HW266449   5.646   7.391   9.575  0.2206 -0.2429  3.5309
21670SOL     OW66450   1.972   2.993   0.818 -0.1524 -0.0659 -0.0480
21670SOL    HW166451   1.913   3.067   0.831 -0.4078 -0.1283 -0.8329
21670SOL    HW266452   1.953   2.934   0.892  0.1794  0.7224  0.6765
21671SOL     OW66453   2.655   3.970   9.901  0.3824  0.5154 -0.1351
21671SOL    HW166454   2.655   3.932   9.813  0.8266  1.5422 -0.5918
21671SOL    HW266455   2.674   3.896   9.959  0.5538 -0.0822 -0.9361
21672SOL     OW66456   0.771   2.148   5.999  0.6615 -0.2484 -0.6147
21672SOL    HW166457   0.749   2.233   5.961 -1.0760 -0.3566  0.0881
21672SOL    HW266458   0.762   2.161   6.094 -0.1115 -1.3320 -0.5235
21673SOL     OW66459   7.942   3.678  11.008 -0.1722  0.1663  0.1022
21673SOL    HW166460   8.031   3.654  11.035 -0.3394  0.9688  1.4823
21673SOL    HW266461   7.920   3.753  11.064 -1.9181 -0.3385  0.1437
21674SOL     OW66462   3.143   4.185   9.616  0.0059 -0.0389 -0.2705
21674SOL    HW166463   3.212   4.252   9.617  0.2736 -0.3025 -0.5996
21674SOL    HW266464   3.162   4.133   9.537 -0.0964 -0.6109  0.0776
21675SOL     OW66465   2.431   3.727   4.594  0.1677 -0.0647 -0.4452
21675SOL    HW166466   2.404   3.801   4.648  1.5195 -0.7208  1.1890
21675SOL    HW266467   2.526   3.722   4.605  0.4334 -0.5432 -2.4988
21676SOL     OW66468   3.915   2.849   0.024 -0.3217 -0.3014  0.0422
21676SOL    HW166469   3.937   2.816  -0.063 -1.4180 -1.2358  0.0950
21676SOL    HW266470   3.956   2.788   0.085 -0.1367 -0.0442  0.1774
21677SOL     OW66471   3.633   2.003   3.434  0.5514  0.0633  0.2551
21677SOL    HW166472   3.689   2.075   3.463  0.8827  0.6613 -1.7081
21677SOL    HW266473   3.577   2.042   3.367 -0.1080 -1.2477  0.0026
21678SOL     OW66474   3.500   6.960   3.107  0.1256 -0.5992  0.5578
21678SOL    HW166475   3.520   7.020   3.179  0.9587  0.5955 -0.6030
21678SOL    HW266476   3.584   6.917   3.089  0.0178 -0.5953  0.0471
21679SOL     OW66477   7.139   3.043  12.420 -0.3021  0.3617  0.4571
21679SOL    HW166478   7.205   3.011  12.481 -1.5705  1.6927  2.7047
21679SOL    HW266479   7.063   2.985  12.434 -0.6329  0.7251  0.1962
21680SOL     OW66480   6.398   6.377  10.290  0.8296  0.4601 -0.2067
21680SOL    HW166481   6.363   6.364  10.202  1.1652  0.3458 -0.3221
21680SOL    HW266482   6.320   6.378  10.346  0.6579 -0.1451 -0.4253
21681SOL     OW66483   1.610   4.389   8.268  0.5498  0.0497  0.8970
21681SOL    HW166484   1.542   4.454   8.284  1.7692  1.4716  0.5081
21681SOL    HW266485   1.571   4.306   8.295 -1.7682  0.6211 -0.4696
21682SOL     OW66486   7.246   0.224   3.985 -0.2714 -0.9359  0.6033
21682SOL    HW166487   7.222   0.269   4.066 -0.3548  0.4407 -0.1680
21682SOL    HW266488   7.341   0.229   3.981 -0.3989  1.7966 -0.8948
21683SOL     OW66489   4.243   3.814   8.683 -0.2761 -0.0560  0.2554
21683SOL    HW166490   4.218   3.886   8.741 -2.6395 -0.3781 -0.2281
21683SOL    HW266491   4.206   3.736   8.726 -0.2624 -0.5669 -0.6394
21684SOL     OW66492   0.381   4.678   4.666 -0.2587 -0.2533  0.0534
21684SOL    HW166493   0.431   4.710   4.590  0.9881  0.2727  1.0592
21684SOL    HW266494   0.357   4.757   4.714  0.8474 -0.6592  1.3389
21685SOL     OW66495   6.604   0.853   8.228 -0.3526 -0.1911 -0.1986
21685SOL    HW166496   6.525   0.895   8.263 -0.5704  0.5114 -1.4509
21685SOL    HW266497   6.607   0.768   8.270 -0.3010  0.7758  1.9059
21686SOL     OW66498   1.924   7.865   5.684  0.3824  0.0650 -0.6887
21686SOL    HW166499   1.938   7.793   5.745  0.0060  0.2278 -0.4119
21686SOL    HW266500   2.013   7.895   5.662  0.5061  1.0311  0.9777
21687SOL     OW66501   7.526   4.222   3.878  0.2774  0.2534  0.1880
21687SOL    HW166502   7.539   4.312   3.908 -2.2357  0.7054  0.1766
21687SOL    HW266503   7.507   4.230   3.785 -1.0487 -0.1141  0.3976
21688SOL     OW66504   3.533   5.303   5.300 -0.2648 -0.5203 -0.3699
21688SOL    HW166505   3.508   5.211   5.292  1.0373 -1.0206  0.8905
21688SOL    HW266506   3.510   5.327   5.389  0.7908 -0.0962 -0.1957
21689SOL     OW66507   0.554   0.690   8.129 -0.2870  0.1513  0.3861
21689SOL    HW166508   0.506   0.771   8.145 -1.0432 -0.4956  1.5681
21689SOL    HW266509   0.505   0.623   8.176  1.3768 -0.6718  1.0637
21690SOL     OW66510   5.156   2.730   3.584  0.2422 -0.3181  0.2461
21690SOL    HW166511   5.137   2.751   3.493  2.4083  0.4338 -0.0968
21690SOL    HW266512   5.197   2.644   3.581  2.0260  0.4811  0.2228
21691SOL     OW66513   2.257   4.969   7.361  0.1463 -0.9529  0.2724
21691SOL    HW166514   2.343   4.960   7.402  0.5974 -1.1062 -0.6862
21691SOL    HW266515   2.245   4.887   7.313 -0.5134 -0.9041  0.3466
21692SOL     OW66516   4.083   2.504  11.744 -0.7295 -0.0874 -0.1322
21692SOL    HW166517   4.038   2.450  11.679 -0.0317 -0.2816 -0.4657
21692SOL    HW266518   4.146   2.444  11.785  2.3889  1.0687 -2.7080
21693SOL     OW66519   0.550   6.366  11.525  0.0294  0.6294 -0.6844
21693SOL    HW166520   0.528   6.275  11.545  0.0296  0.9758  1.0698
21693SOL    HW266521   0.639   6.378  11.558  0.5582  0.9181 -2.1454
21694SOL     OW66522   4.413   0.493   2.208 -0.1990  0.1447 -0.5354
21694SOL    HW166523   4.453   0.422   2.258 -0.1095  0.2524 -0.4530
21694SOL    HW266524   4.481   0.522   2.147 -0.3594 -0.0909 -0.8299
21695SOL     OW66525   6.712   1.519   6.665  0.3824  0.1296  0.3989
21695SOL    HW166526   6.740   1.607   6.639 -1.2810  0.2932 -1.0289
21695SOL    HW266527   6.786   1.484   6.715  1.9648  1.5073 -0.8526
21696SOL     OW66528   7.938   0.838   1.633  0.1042  0.3178  0.0817
21696SOL    HW166529   8.023   0.836   1.588  0.4516  0.7226  0.7011
21696SOL    HW266530   7.943   0.915   1.690 -0.9843  0.8019 -0.4451
21697SOL     OW66531   3.473   1.942   0.828  0.0022  0.7117  0.6775
21697SOL    HW166532   3.406   1.958   0.762  1.3527 -0.0646 -0.9567
21697SOL    HW266533   3.455   2.007   0.896 -0.1356  3.0905 -1.4709
21698SOL     OW66534   0.075   7.001   4.485 -0.4134 -0.2582 -0.2400
21698SOL    HW166535  -0.018   7.022   4.476 -0.7467 -1.3738  0.4866
21698SOL    HW266536   0.096   7.027   4.575  0.3186  1.1542 -0.7720
21699SOL     OW66537   3.277   5.995   3.895 -0.0320 -0.3566  0.6538
21699SOL    HW166538   3.271   6.039   3.810 -0.4736  1.0743  1.3968
21699SOL    HW266539   3.221   5.918   3.886  1.3301 -1.2127 -0.9148
21700SOL     OW66540   3.350   5.299   8.621 -0.3910  0.0737  0.2815
21700SOL    HW166541   3.357   5.211   8.656 -0.5707 -0.2202 -0.3979
21700SOL    HW266542   3.430   5.311   8.569 -0.3357  0.3350  0.4236
21701SOL     OW66543   7.968   7.823   1.845 -0.0907 -0.4845  0.1306
21701SOL    HW166544   7.879   7.853   1.862  0.5609  1.2154  0.6947
21701SOL    HW266545   8.024   7.890   1.884  1.4487 -0.7932 -1.4372
21702SOL     OW66546   3.552   6.008  11.207 -0.1572  0.2025  0.5369
21702SOL    HW166547   3.503   6.011  11.125  0.3410 -0.4364  0.2036
21702SOL    HW266548   3.619   6.076  11.197 -0.2268  0.2655  0.4991
21703SOL     OW66549   2.417   2.489   5.358  0.3380 -0.0635 -0.2043
21703SOL    HW166550   2.363   2.517   5.432  0.8896  0.0029  0.1795
21703SOL    HW266551   2.374   2.411   5.325  0.2216 -0.2345  0.3466
21704SOL     OW66552   2.377   4.807   3.136 -0.4499  0.5921  0.5591
21704SOL    HW166553   2.396   4.836   3.047 -0.6320 -0.3794  0.1932
21704SOL    HW266554   2.428   4.866   3.191 -0.8279  1.6083 -0.1496
21705SOL     OW66555   2.228   0.073   0.430 -0.0870  0.4781  0.0350
21705SOL    HW166556   2.149   0.119   0.402 -0.1978 -0.5283 -1.4304
21705SOL    HW266557   2.237   0.096   0.522 -2.6078 -0.0915  0.5070
21706SOL     OW66558   1.996   5.275   9.628 -0.2161 -0.2605 -0.0232
21706SOL    HW166559   1.911   5.317   9.621 -0.1313 -0.0593  0.1330
21706SOL    HW266560   2.053   5.342   9.665 -0.1379 -0.5897  0.4678
21707SOL     OW66561   7.930   3.835   7.502 -0.2885 -0.4996 -0.1000
21707SOL    HW166562   7.839   3.857   7.525 -0.1621 -0.1326  0.0520
21707SOL    HW266563   7.970   3.810   7.585 -0.3874 -1.1704 -0.2462
21708SOL     OW66564   5.444   7.467   9.509 -0.3734  0.1082  0.0847
21708SOL    HW166565   5.492   7.545   9.534  1.8493 -1.2648  0.3934
21708SOL    HW266566   5.413   7.430   9.592  3.7660 -2.4316  0.7459
21709SOL     OW66567   7.624   1.463   8.050 -0.6997 -0.0922 -0.3621
21709SOL    HW166568   7.677   1.390   8.019  0.0463  0.5515 -0.6558
21709SOL    HW266569   7.608   1.443   8.143  1.2897  0.3588  0.1387
21710SOL     OW66570   6.338   0.045   4.868 -0.0183  0.3688 -0.0198
21710SOL    HW166571   6.402  -0.025   4.853  0.2883  0.4664  0.7682
21710SOL    HW266572   6.359   0.111   4.802 -0.1814 -0.1953 -0.6418
21711SOL     OW66573   1.508   0.393   5.048  0.3469 -0.3895  0.0809
21711SOL    HW166574   1.504   0.487   5.029 -1.1218 -0.6656 -1.2282
21711SOL    HW266575   1.565   0.386   5.124 -0.6428  1.7154  1.0965
21712SOL     OW66576   4.182   6.986  11.460  0.2399 -0.4128  0.2172
21712SOL    HW166577   4.150   6.939  11.383 -1.6891  0.8535  0.1841
21712SOL    HW266578   4.105   6.995  11.517  0.8000  1.6615  0.7301
21713SOL     OW66579   7.973   5.260   5.394  0.2356 -0.1512 -0.0264
21713SOL    HW166580   8.063   5.256   5.363  0.2720  0.6455 -0.0465
21713SOL    HW266581   7.979   5.299   5.481 -0.2287  1.6515 -0.7592
21714SOL     OW66582   0.779   3.725  12.383 -0.1911 -0.6182  0.3441
21714SOL    HW166583   0.823   3.641  12.374 -0.6124 -0.7404 -0.6970
21714SOL    HW266584   0.694   3.703  12.422 -0.7327 -0.8190 -0.9191
21715SOL     OW66585   7.805   5.594   0.466 -0.6685  0.0969 -0.0081
21715SOL    HW166586   7.740   5.658   0.437  0.4034  1.2961  0.1515
21715SOL    HW266587   7.832   5.549   0.386 -2.0632 -0.7864 -0.0014
21716SOL     OW66588   1.062   0.605   5.613 -0.4224 -0.1727 -0.3370
21716SOL    HW166589   1.059   0.654   5.695  0.5909  0.7316 -0.8243
21716SOL    HW266590   1.051   0.670   5.544  0.8879 -0.6126 -0.9939
21717SOL     OW66591   3.132   7.069   2.272 -0.2648 -0.4872 -0.1738
21717SOL    HW166592   3.107   7.078   2.364  0.9952 -3.9772  0.6925
21717SOL    HW266593   3.209   7.126   2.263 -1.1065  0.8164  0.5573
21718SOL     OW66594   0.666   4.299   8.188 -0.1911  0.5944 -0.5785
21718SOL    HW166595   0.727   4.234   8.224 -0.4105  0.6457 -0.1033
21718SOL    HW266596   0.715   4.381   8.189  0.7589  0.1393 -2.9241
21719SOL     OW66597   6.241   6.523   1.239  0.2926  0.1129  0.2120
21719SOL    HW166598   6.275   6.456   1.299 -0.3848  0.1007  0.6008
21719SOL    HW266599   6.231   6.601   1.293 -0.2302  0.1314  0.0943
21720SOL     OW66600   1.908   4.974   2.456  0.2788 -0.3096  0.0542
21720SOL    HW166601   1.973   4.905   2.444  0.4848  0.0123 -0.7055
21720SOL    HW266602   1.830   4.928   2.488  0.0388 -1.0847 -1.5238
21721SOL     OW66603   2.901   5.087   7.823 -0.5453 -0.4526 -0.5225
21721SOL    HW166604   2.835   5.021   7.844 -0.8785 -0.3294 -1.1550
21721SOL    HW266605   2.852   5.159   7.784  0.0930 -0.9173 -2.2904
21722SOL     OW66606   7.341   3.637   4.899 -0.1073  0.5042  0.1250
21722SOL    HW166607   7.314   3.546   4.910 -1.3099  0.8952  0.6030
21722SOL    HW266608   7.436   3.636   4.910 -0.0397 -0.7758 -0.4715
21723SOL     OW66609   1.717   5.150   9.759 -0.2568 -0.8142 -0.1833
21723SOL    HW166610   1.668   5.088   9.705  0.6771  0.6952 -2.9634
21723SOL    HW266611   1.745   5.218   9.698  2.0252  0.3715  2.0064
21724SOL     OW66612   6.150   4.754  11.648  0.1581 -0.0564  0.4020
21724SOL    HW166613   6.143   4.662  11.626  0.1857  0.2001 -0.7553
21724SOL    HW266614   6.077   4.796  11.601  0.8923  0.6672 -0.1400
21725SOL     OW66615   6.893   5.500   7.198 -0.2974  0.0741  0.7867
21725SOL    HW166616   6.975   5.549   7.205 -0.7935  1.1841 -0.7225
21725SOL    HW266617   6.907   5.423   7.253  1.3869  0.7249  1.3416
21726SOL     OW66618   4.924   7.047   1.628 -0.1036  0.2152  0.2501
21726SOL    HW166619   4.852   7.111   1.635 -0.1825  0.0761  0.7064
21726SOL    HW266620   4.908   7.003   1.545  0.6198  1.5998 -0.6700
21727SOL     OW66621   2.739   5.880   2.963  0.0314 -0.5498  0.2018
21727SOL    HW166622   2.812   5.920   3.010 -0.2852  1.1016 -0.6240
21727SOL    HW266623   2.660   5.910   3.009 -0.1633 -2.8281  1.4691
21728SOL     OW66624   6.030   0.091   5.311  0.4392 -0.3730  0.4452
21728SOL    HW166625   6.113   0.112   5.267  0.9157  1.6596  2.1299
21728SOL    HW266626   6.057   0.064   5.399 -0.6183 -1.8159  0.3545
21729SOL     OW66627   1.794   5.674   4.125  0.0738  0.3122  0.0666
21729SOL    HW166628   1.763   5.761   4.102 -0.5347  0.5680  1.6980
21729SOL    HW266629   1.859   5.689   4.194 -0.2972 -0.5239  0.6136
21730SOL     OW66630   6.100   2.143   1.093 -0.1624  0.1013  0.1441
21730SOL    HW166631   6.053   2.069   1.130 -0.6639  0.9371  1.2500
21730SOL    HW266632   6.184   2.107   1.065 -1.0787 -1.2276 -1.0075
21731SOL     OW66633   7.722   4.915   6.697 -0.5706  0.4744 -0.0667
21731SOL    HW166634   7.782   4.932   6.769 -0.3176  1.1171 -0.4149
21731SOL    HW266635   7.646   4.875   6.737  0.3029 -0.8830  0.3205
21732SOL     OW66636   4.654   0.314  11.824  0.3712 -0.0281 -0.2370
21732SOL    HW166637   4.631   0.301  11.916  2.0973 -0.2121  0.2094
21732SOL    HW266638   4.638   0.407  11.808 -0.8929 -0.1933 -0.0696
21733SOL     OW66639   6.276   5.264   3.339 -0.5658  0.5002  0.0113
21733SOL    HW166640   6.318   5.223   3.263  1.1143 -0.3207  1.3145
21733SOL    HW266641   6.191   5.294   3.306  0.4196  0.9380 -2.3990
21734SOL     OW66642   5.764   5.812   4.583  0.3331 -0.5627 -0.0868
21734SOL    HW166643   5.675   5.779   4.571 -0.8123  1.1772  2.6307
21734SOL    HW266644   5.784   5.857   4.501 -2.4960  1.4429  0.1899
21735SOL     OW66645   0.946   1.147   2.921 -0.1789  0.5587  0.0342
21735SOL    HW166646   0.994   1.069   2.891 -0.9375 -0.4207  1.2689
21735SOL    HW266647   1.005   1.187   2.984 -0.4310  0.0889  0.5756
21736SOL     OW66648   6.426   1.469   1.307 -0.2095  0.2120 -0.6395
21736SOL    HW166649   6.346   1.497   1.263 -0.2208  0.6624 -0.3344
21736SOL    HW266650   6.495   1.481   1.242 -0.3337  0.1908 -0.7749
21737SOL     OW66651   5.987   2.351  12.113 -0.3968  0.4352  0.2690
21737SOL    HW166652   6.016   2.303  12.036  0.4161  0.6909  0.3971
21737SOL    HW266653   5.918   2.298  12.151 -0.0672 -0.2221 -0.0409
21738SOL     OW66654   5.221   5.274   1.255  0.1248 -0.3407 -0.2779
21738SOL    HW166655   5.145   5.240   1.208 -1.9505 -0.3247  2.7591
21738SOL    HW266656   5.217   5.369   1.242  1.3588 -0.5175 -2.3876
21739SOL     OW66657   2.562   7.865   1.734 -0.0072 -0.2448 -0.0432
21739SOL    HW166658   2.561   7.809   1.656 -1.3719 -3.0732  1.8550
21739SOL    HW266659   2.655   7.885   1.747  0.2008  1.0774 -2.8134
21740SOL     OW66660   0.061   1.933   0.197  0.3833 -0.2143  0.1002
21740SOL    HW166661   0.139   1.882   0.220  0.6198 -0.2763 -0.7932
21740SOL    HW266662   0.073   2.016   0.243  2.0743  0.6212 -1.7110
21741SOL     OW66663   0.632   0.703   6.535  0.1503  0.5504  0.1239
21741SOL    HW166664   0.564   0.767   6.553 -2.0259 -0.8134 -2.5003
21741SOL    HW266665   0.594   0.619   6.559  1.7975 -0.0854  0.6865
21742SOL     OW66666   6.199   4.920   3.270 -0.0866  0.5704 -0.1868
21742SOL    HW166667   6.266   4.981   3.241  0.9895 -1.9373 -3.6281
21742SOL    HW266668   6.127   4.931   3.207  0.0838 -1.5069 -0.8105
21743SOL     OW66669   2.671   4.704   3.923  0.5787 -0.3890 -0.1281
21743SOL    HW166670   2.734   4.632   3.935 -0.3149 -1.3416 -0.9267
21743SOL    HW266671   2.711   4.778   3.967  1.8007 -1.2320  0.2456
21744SOL     OW66672   0.499   4.808   5.845  0.2123 -0.1420 -0.2289
21744SOL    HW166673   0.516   4.869   5.773  1.3504  1.4347  1.2802
21744SOL    HW266674   0.406   4.822   5.866  0.4166  0.9944 -0.0071
21745SOL     OW66675   1.869   6.028   8.956 -0.3758  0.0840 -0.7621
21745SOL    HW166676   1.826   6.041   8.871  1.5877 -1.3953 -2.0731
21745SOL    HW266677   1.933   6.099   8.961  0.1814 -0.3967 -0.9936
21746SOL     OW66678   7.613   4.326   1.385  0.2594  0.2970  0.4795
21746SOL    HW166679   7.601   4.411   1.428  0.2328  0.6892 -0.2748
21746SOL    HW266680   7.533   4.278   1.403 -0.4841  1.1133 -0.5769
21747SOL     OW66681   0.322   6.221   7.713  0.2452 -0.1956 -0.4884
21747SOL    HW166682   0.240   6.204   7.667  0.2926 -0.1437 -0.5920
21747SOL    HW266683   0.350   6.135   7.743  0.2035 -0.2277 -0.5400
21748SOL     OW66684   7.866   4.516   4.830  0.0925 -0.0491 -0.2909
21748SOL    HW166685   7.816   4.591   4.862 -0.8843 -1.2586  1.1640
21748SOL    HW266686   7.940   4.554   4.783  0.3439  1.8194  1.5210
21749SOL     OW66687   0.891   7.649  12.173  0.2954  0.1769  0.3652
21749SOL    HW166688   0.974   7.604  12.194  0.8261  0.9929  0.0673
21749SOL    HW266689   0.918   7.738  12.150 -0.4069 -0.1702 -2.0761
21750SOL     OW66690   3.809   1.068   7.226 -0.9328 -0.2813 -0.0749
21750SOL    HW166691   3.801   0.985   7.180 -1.3259 -1.0558  1.3250
21750SOL    HW266692   3.801   1.135   7.158 -0.7051 -1.3816 -1.2068
21751SOL     OW66693   5.129   1.546  10.918 -0.1595  0.0260  0.5083
21751SOL    HW166694   5.219   1.511  10.915 -0.5278 -0.9658  0.6105
21751SOL    HW266695   5.126   1.593  11.002 -0.1853 -1.2675  1.2691
21752SOL     OW66696   7.177   3.408   9.796  0.2900 -0.1919  0.0850
21752SOL    HW166697   7.228   3.465   9.739  0.5479 -0.9542 -0.4586
21752SOL    HW266698   7.237   3.337   9.820 -0.7636 -1.6783 -1.4261
21753SOL     OW66699   0.107   0.555   3.006  0.2120 -0.2981 -0.2813
21753SOL    HW166700   0.033   0.527   2.951  0.0827  1.3657 -1.0172
21753SOL    HW266701   0.113   0.650   2.992  0.8569  0.0186  1.7869
21754SOL     OW66702   6.162   5.347   8.729 -0.0717 -0.3999  0.0322
21754SOL    HW166703   6.170   5.443   8.726  2.7808 -0.5377  0.3342
21754SOL    HW266704   6.068   5.331   8.721 -0.6390  2.4081 -0.1785
21755SOL     OW66705   3.412   2.104   1.028 -0.0245 -0.5784  0.2203
21755SOL    HW166706   3.320   2.112   1.056 -0.1863  0.4073 -0.5393
21755SOL    HW266707   3.444   2.194   1.025  0.9511 -0.9070  0.3708
21756SOL     OW66708   5.516   7.768   9.380 -0.4041 -0.2726 -0.1320
21756SOL    HW166709   5.442   7.816   9.343 -0.8853 -0.0363  1.0894
21756SOL    HW266710   5.549   7.715   9.308 -1.1825  0.3185 -0.9402
21757SOL     OW66711   3.471   1.297   0.492  0.1606  0.1826  0.5484
21757SOL    HW166712   3.556   1.282   0.534 -0.1342 -1.3174  0.6534
21757SOL    HW266713   3.411   1.315   0.565  0.1186 -0.0919  0.5813
21758SOL     OW66714   3.638   0.598   5.532 -0.2224  0.4803 -0.1797
21758SOL    HW166715   3.723   0.578   5.491 -0.0585  2.9125 -1.1697
21758SOL    HW266716   3.574   0.551   5.478  0.3649 -0.2268 -0.2758
21759SOL     OW66717   3.650   3.121  12.112  0.3381 -0.6593 -0.4233
21759SOL    HW166718   3.618   3.210  12.100  1.7902 -0.2978 -2.1064
21759SOL    HW266719   3.605   3.070  12.044  2.4165 -0.3407 -2.1500
21760SOL     OW66720   7.393   5.882   0.232 -0.1140 -0.3033 -0.2171
21760SOL    HW166721   7.364   5.967   0.265  0.2507  0.3993 -1.5992
21760SOL    HW266722   7.334   5.818   0.273 -0.2401  0.5843  1.0252
21761SOL     OW66723   0.156   1.095   1.981 -0.4746 -0.4074 -0.8041
21761SOL    HW166724   0.199   1.009   1.982  1.7428  0.6116  0.8704
21761SOL    HW266725   0.219   1.153   1.939 -0.5693  0.9443  0.7962
21762SOL     OW66726   1.639   7.856   2.450 -0.0436 -0.2775 -0.5879
21762SOL    HW166727   1.697   7.801   2.502 -0.3647 -0.5608 -0.5282
21762SOL    HW266728   1.621   7.805   2.371 -1.0748 -0.6535 -0.1267
21763SOL     OW66729   6.286   1.850   4.927 -0.4023  0.9180  0.0995
21763SOL    HW166730   6.205   1.861   4.877  0.9453  1.1821 -2.1963
21763SOL    HW266731   6.341   1.924   4.900  1.3322 -0.3238 -0.0108
21764SOL     OW66732   2.899   2.893  11.117  0.6044  0.3832 -0.1101
21764SOL    HW166733   2.946   2.875  11.036 -1.1228 -2.3927 -0.6223
21764SOL    HW266734   2.837   2.962  11.094  0.9290  0.4499 -0.8178
21765SOL     OW66735   2.022   5.319   5.566 -0.0741  0.0292 -0.1573
21765SOL    HW166736   2.055   5.257   5.500 -1.1283 -2.3515  1.4218
21765SOL    HW266737   2.071   5.296   5.646 -1.1288  0.6225  0.6775
21766SOL     OW66738   5.477   2.371   4.800  0.2858  0.5099  0.1505
21766SOL    HW166739   5.498   2.411   4.716  1.5217 -1.5173 -0.5676
21766SOL    HW266740   5.412   2.430   4.839  1.6047  2.8792 -1.0334
21767SOL     OW66741   2.810   3.683  10.613  0.1630 -0.2750  0.3388
21767SOL    HW166742   2.803   3.590  10.634  0.2157 -0.7889 -1.7092
21767SOL    HW266743   2.739   3.724  10.662  0.5886 -1.2639  1.8583
21768SOL     OW66744   0.510   0.589   9.778 -0.3945  0.4232  0.3008
21768SOL    HW166745   0.547   0.677   9.780 -0.1392  0.4178 -1.7054
21768SOL    HW266746   0.574   0.534   9.824  0.0922  1.0789  0.4128
21769SOL     OW66747   1.186   2.914  11.793  0.3833  0.3851  0.2434
21769SOL    HW166748   1.171   2.911  11.698 -0.3227  1.2749  0.3158
21769SOL    HW266749   1.281   2.906  11.802  0.3590 -1.2644 -0.4481
21770SOL     OW66750   5.471   4.260   2.462 -0.2856 -0.2290  0.7641
21770SOL    HW166751   5.520   4.198   2.407 -1.4811  0.3424 -1.0561
21770SOL    HW266752   5.452   4.212   2.542  0.4737 -1.5383  0.1889
21771SOL     OW66753   4.719   3.506   1.868 -0.2759 -0.1807  0.1687
21771SOL    HW166754   4.803   3.525   1.825  0.0736 -0.6302  0.6422
21771SOL    HW266755   4.708   3.412   1.858 -0.8171 -0.0966 -0.0447
21772SOL     OW66756   3.612   5.152  11.376  0.0305  0.8538  0.4054
21772SOL    HW166757   3.635   5.219  11.440  0.9717 -0.2248  1.2335
21772SOL    HW266758   3.525   5.178  11.344  0.1178  2.1222  1.1404
21773SOL     OW66759   6.602   6.396  11.382 -0.3880 -0.1887 -0.0352
21773SOL    HW166760   6.652   6.454  11.326 -0.2562  0.3918  0.6586
21773SOL    HW266761   6.627   6.308  11.356  0.6808  0.0926  0.0202
21774SOL     OW66762   0.618   3.006  11.573 -0.8943 -0.3172  0.8719
21774SOL    HW166763   0.603   3.097  11.547  1.0260 -0.8459 -2.8259
21774SOL    HW266764   0.682   3.011  11.644 -0.6111  1.2217  0.5359
21775SOL     OW66765   7.002   7.881   9.081  0.0441 -0.6636 -0.1988
21775SOL    HW166766   6.911   7.885   9.109  0.0419  0.6197 -0.2995
21775SOL    HW266767   7.003   7.820   9.007 -0.5935 -1.2364  0.2598
21776SOL     OW66768   4.190   4.531   0.478  0.2883 -0.3094 -0.3423
21776SOL    HW166769   4.101   4.536   0.443  0.2248 -0.0692 -0.1445
21776SOL    HW266770   4.232   4.612   0.449  1.0107 -1.2312 -1.9921
21777SOL     OW66771   7.705   4.364   3.328  0.4751 -0.7454  0.1792
21777SOL    HW166772   7.791   4.359   3.370  0.8884 -0.2968 -0.5894
21777SOL    HW266773   7.701   4.284   3.275 -0.5137 -1.8876  1.8932
21778SOL     OW66774   2.666   3.746   5.207  0.1192  0.3073 -0.0221
21778SOL    HW166775   2.608   3.702   5.146 -0.0166 -0.4335  0.6259
21778SOL    HW266776   2.633   3.835   5.213 -0.8327 -0.0531  0.1840
21779SOL     OW66777   5.498   6.026   5.454  0.3940 -0.2043 -0.0224
21779SOL    HW166778   5.514   6.096   5.517  0.6634 -0.7476  0.5233
21779SOL    HW266779   5.427   5.975   5.493  0.2281 -0.2568 -0.3969
21780SOL     OW66780   0.115   6.769   1.701  0.6315  0.3419 -0.3947
21780SOL    HW166781   0.137   6.711   1.775 -1.3251 -1.6985 -1.3019
21780SOL    HW266782   0.160   6.730   1.626  1.1432  1.3558 -0.6231
21781SOL     OW66783   5.446   4.077   9.059 -0.0965 -0.4402 -0.4119
21781SOL    HW166784   5.425   4.156   9.009  1.3072  1.1174  1.3140
21781SOL    HW266785   5.509   4.030   9.005  0.4738  0.6030 -0.6877
21782SOL     OW66786   2.781   4.276   5.997  0.6363 -0.4483 -0.2281
21782SOL    HW166787   2.831   4.344   6.041  1.0057 -1.6264  1.2477
21782SOL    HW266788   2.689   4.295   6.018  0.5352  0.8568 -1.7024
21783SOL     OW66789   4.213   5.978   6.764  0.2029 -0.0431 -0.1433
21783SOL    HW166790   4.128   5.981   6.720  1.3355  0.5218 -2.4296
21783SOL    HW266791   4.249   6.067   6.754  0.7926 -0.0886  1.3660
21784SOL     OW66792   5.774   6.491   5.399 -0.0887 -0.4830 -0.3386
21784SOL    HW166793   5.777   6.563   5.337  1.8730  0.2192  0.5097
21784SOL    HW266794   5.839   6.428   5.367 -0.5079 -1.0535 -0.0958
21785SOL     OW66795   6.514   4.512   7.638 -0.6251 -0.0250  0.2529
21785SOL    HW166796   6.462   4.457   7.696 -1.0403  0.3544  0.2455
21785SOL    HW266797   6.588   4.456   7.612 -1.0411 -0.5778  0.2370
21786SOL     OW66798   6.064   3.807   3.606  0.2075 -0.5380 -0.0991
21786SOL    HW166799   6.031   3.876   3.547 -0.2432  1.7244  2.6093
21786SOL    HW266800   5.986   3.776   3.652  0.5822 -2.1449 -0.4872
21787SOL     OW66801   1.286   0.405   7.169 -0.8160 -0.6730  0.0587
21787SOL    HW166802   1.202   0.364   7.151  0.3571 -2.3685 -1.9244
21787SOL    HW266803   1.352   0.340   7.143  1.2287 -0.6577  4.2929
21788SOL     OW66804   3.958   7.271   5.203  0.0446 -0.2971 -0.1368
21788SOL    HW166805   3.974   7.328   5.278  1.0412  0.3195 -0.7910
21788SOL    HW266806   3.912   7.326   5.140 -1.9812 -1.1781  0.4813
21789SOL     OW66807   2.537   7.794   4.066  0.1195  0.3466 -0.0064
21789SOL    HW166808   2.579   7.838   4.140  1.7222 -1.3395  0.1636
21789SOL    HW266809   2.444   7.795   4.087  0.4181  1.0048  1.4026
21790SOL     OW66810   7.199   5.556   5.114  0.3122 -0.8661  0.0786
21790SOL    HW166811   7.187   5.601   5.198 -0.3190 -0.7207 -0.0833
21790SOL    HW266812   7.123   5.582   5.062  1.4899  0.3680 -1.1358
21791SOL     OW66813   3.997   2.385   4.823 -0.0248 -0.1517 -0.2425
21791SOL    HW166814   3.952   2.306   4.850 -1.5743  0.8208  0.1517
21791SOL    HW266815   3.974   2.450   4.890  1.5049  0.5573 -0.3501
21792SOL     OW66816   3.666   7.874   2.187  0.3827 -0.1289  0.6085
21792SOL    HW166817   3.687   7.877   2.094  0.3543  1.4767  0.6140
21792SOL    HW266818   3.634   7.785   2.203  2.0260 -0.9590 -0.5268
21793SOL     OW66819   4.745   0.438   4.934 -0.0780  0.0245  0.5993
21793SOL    HW166820   4.788   0.438   5.020 -1.0088  0.5377  1.0658
21793SOL    HW266821   4.653   0.452   4.953 -0.4147 -0.6816 -0.4342
21794SOL     OW66822   1.190   1.616   1.058 -0.0794 -0.5963  1.0266
21794SOL    HW166823   1.105   1.619   1.101  0.1206 -0.4420  1.4184
21794SOL    HW266824   1.232   1.538   1.093 -0.5723 -1.4311 -0.1690
21795SOL     OW66825   4.929   2.695   9.832 -0.1580 -0.0733 -0.5748
21795SOL    HW166826   4.879   2.760   9.782  0.5813 -0.2021 -1.5042
21795SOL    HW266827   5.021   2.717   9.815  0.2716  1.7611  3.1204
21796SOL     OW66828   4.802   7.205   7.418  0.7661 -0.3330  0.2640
21796SOL    HW166829   4.837   7.119   7.393  1.0257 -0.3425  0.6536
21796SOL    HW266830   4.721   7.213   7.368  1.0945 -0.5033 -0.3114
21797SOL     OW66831   3.880   5.618   0.577  0.1864 -0.5190 -0.1409
21797SOL    HW166832   3.856   5.631   0.668  1.4568 -0.2363  0.1783
21797SOL    HW266833   3.872   5.524   0.562  0.0173 -0.5702  0.2791
21798SOL     OW66834   3.151   3.129   0.823 -0.0954 -0.0940  0.0323
21798SOL    HW166835   3.104   3.155   0.744  0.5292 -1.1319 -0.6952
21798SOL    HW266836   3.239   3.108   0.794  0.1787 -0.3873  1.0230
21799SOL     OW66837   5.948   4.593   8.064 -0.5576 -0.6879 -0.4845
21799SOL    HW166838   6.011   4.586   7.992 -1.6420  0.3223 -1.5733
21799SOL    HW266839   5.885   4.523   8.047 -0.2407 -1.1298  0.1075
21800SOL     OW66840   4.237   7.318   5.085  0.0315 -0.3738  0.0995
21800SOL    HW166841   4.155   7.300   5.132  1.8668  0.9089  4.2444
21800SOL    HW266842   4.278   7.232   5.074  0.2720 -0.6499  2.5731
21801SOL     OW66843   5.940   6.550   6.250 -0.0821 -0.1705  0.8924
21801SOL    HW166844   5.927   6.642   6.228 -1.5681 -0.5341  0.1336
21801SOL    HW266845   6.019   6.550   6.304  0.7644  1.3765 -0.2323
21802SOL     OW66846   2.779   2.986   2.584 -0.1671  0.5496 -0.0646
21802SOL    HW166847   2.872   2.972   2.570  0.2153  1.1492  1.6597
21802SOL    HW266848   2.757   3.060   2.527  0.8632  1.6321  0.8926
21803SOL     OW66849   2.732   0.627   1.737  0.2456 -0.3007  0.2037
21803SOL    HW166850   2.815   0.637   1.692 -0.5124 -0.9252 -1.4134
21803SOL    HW266851   2.743   0.548   1.791  0.9567  0.0899  0.6384
21804SOL     OW66852   6.823   2.500  10.264  0.5010  0.3642  0.3475
21804SOL    HW166853   6.833   2.561  10.191  0.8494 -1.1480 -0.9330
21804SOL    HW266854   6.730   2.505  10.287  0.7691  2.3038  1.1633
21805SOL     OW66855   3.407   2.380  10.589  0.0561 -0.3491 -0.0901
21805SOL    HW166856   3.351   2.413  10.519 -0.6265  0.4490  0.7953
21805SOL    HW266857   3.495   2.381  10.552 -0.5390 -2.1495 -1.7092
21806SOL     OW66858   2.838   6.818   6.854 -0.2450  0.5380 -0.1772
21806SOL    HW166859   2.922   6.857   6.877  0.3151  0.3339 -1.7263
21806SOL    HW266860   2.830   6.742   6.912 -0.7001  2.0922  1.9125
21807SOL     OW66861   3.020   0.716   5.292 -0.2190 -0.2216  0.0268
21807SOL    HW166862   3.033   0.624   5.311  0.6542 -0.3572 -1.1242
21807SOL    HW266863   2.927   0.732   5.311 -0.0629 -0.9809  1.5494
21808SOL     OW66864   0.953   3.653  11.325 -0.1576  0.1265  0.6746
21808SOL    HW166865   1.042   3.619  11.313  0.1463  1.3321 -0.8252
21808SOL    HW266866   0.940   3.654  11.419  1.0170 -1.0502  0.8832
21809SOL     OW66867   4.402   3.591  11.260  0.5330  0.0413  0.3899
21809SOL    HW166868   4.460   3.666  11.248  0.6738 -0.3893 -2.0418
21809SOL    HW266869   4.319   3.630  11.288  0.4980  1.1875 -1.1748
21810SOL     OW66870   4.589   5.242   3.348 -0.1747  0.6224  0.0533
21810SOL    HW166871   4.588   5.153   3.312 -0.8068  0.7912 -0.3670
21810SOL    HW266872   4.657   5.287   3.298  1.1711 -0.0088  1.2568
21811SOL     OW66873   4.207   7.326   9.007  0.0303  0.2322 -0.7825
21811SOL    HW166874   4.259   7.391   9.056 -1.9253  0.6252  0.9266
21811SOL    HW266875   4.148   7.379   8.953 -3.5786  0.2590  2.6884
21812SOL     OW66876   6.031   1.493   9.898 -0.3741  0.6789  0.4877
21812SOL    HW166877   6.073   1.449   9.972 -1.5517  1.6190  1.7614
21812SOL    HW266878   5.996   1.422   9.844  0.0486 -0.0014  1.1000
21813SOL     OW66879   4.840   0.010  10.766  0.0705 -0.0623  0.6104
21813SOL    HW166880   4.869  -0.004  10.676 -1.7753 -0.0959 -0.0230
21813SOL    HW266881   4.913  -0.022  10.820  1.2082 -0.0466 -0.8509
21814SOL     OW66882   0.401   7.033   7.078 -0.0711 -0.0052 -0.5017
21814SOL    HW166883   0.474   7.019   7.017 -1.0757 -1.2505 -1.4502
21814SOL    HW266884   0.436   7.008   7.164  0.8575  0.2146 -0.8059
21815SOL     OW66885   0.703   3.886   8.789  1.0313 -0.6475  0.1974
21815SOL    HW166886   0.682   3.954   8.852 -0.6034 -0.4996 -0.4588
21815SOL    HW266887   0.627   3.828   8.789  1.3468 -1.1045 -1.0188
21816SOL     OW66888   1.629   1.143  12.122  0.5635  0.1345 -0.1851
21816SOL    HW166889   1.708   1.171  12.167  1.0092 -0.0427 -0.8419
21816SOL    HW266890   1.638   1.179  12.033  0.5730 -1.0346 -0.6745
21817SOL     OW66891   2.170   1.327   7.911  0.1272 -0.0460 -0.0950
21817SOL    HW166892   2.078   1.342   7.933  0.6058  1.1201  1.2717
21817SOL    HW266893   2.210   1.414   7.916  1.1455 -0.3948 -1.5348
21818SOL     OW66894   6.656   4.529   1.885 -0.1263 -0.0016 -0.6898
21818SOL    HW166895   6.614   4.451   1.850  0.7145 -0.0745 -1.5595
21818SOL    HW266896   6.669   4.587   1.810  0.1314  0.5749 -0.2189
21819SOL     OW66897   3.888   3.474  10.773  0.2500  0.6319  0.9866
21819SOL    HW166898   3.819   3.478  10.839  0.1645  2.4941  0.8273
21819SOL    HW266899   3.967   3.499  10.820  0.1545  2.1667  0.3799
21820SOL     OW66900   7.224   3.772   5.649 -0.3160 -0.3040  0.3075
21820SOL    HW166901   7.293   3.770   5.716  1.4761 -0.5378 -1.4236
21820SOL    HW266902   7.261   3.827   5.580 -0.4087 -3.0398 -2.1101
21821SOL     OW66903   3.086   4.904  11.478  0.0904 -0.4909  0.0273
21821SOL    HW166904   3.153   4.973  11.471 -2.6666  2.5344  1.0024
21821SOL    HW266905   3.081   4.885  11.571  0.1626 -1.3442 -0.1382
21822SOL     OW66906   5.142   3.004   2.186 -0.6524 -0.1251 -0.3725
21822SOL    HW166907   5.063   2.956   2.162 -0.9955 -0.0662  0.5920
21822SOL    HW266908   5.111   3.089   2.216 -0.3517 -0.5551  1.2235
21823SOL     OW66909   1.891   3.948   2.254  0.0539 -0.1462 -0.2646
21823SOL    HW166910   1.894   3.959   2.159 -0.2874  1.1062 -0.1593
21823SOL    HW266911   1.981   3.927   2.280 -0.1207 -1.9197 -0.9931
21824SOL     OW66912   2.094   5.772  12.277 -0.2510  0.0371  0.4273
21824SOL    HW166913   2.135   5.781  12.363 -0.3840 -0.8992  0.6005
21824SOL    HW266914   2.082   5.677  12.266  2.0979 -0.0990 -1.7006
21825SOL     OW66915   4.800   7.667   8.061  0.1688  0.2522  0.6470
21825SOL    HW166916   4.852   7.587   8.068  0.0054 -0.0198 -0.9229
21825SOL    HW266917   4.723   7.641   8.011  0.8795  1.7206 -1.3435
21826SOL     OW66918   4.702   2.969  11.506  0.6601 -0.2996 -0.1125
21826SOL    HW166919   4.747   3.051  11.485  2.7001 -1.8191 -2.2297
21826SOL    HW266920   4.678   2.932  11.421  1.5429 -2.7984  0.6316
21827SOL     OW66921   3.720   4.463   9.817 -0.6431  0.0462 -0.0993
21827SOL    HW166922   3.700   4.496   9.729  0.2043  0.6567 -0.0728
21827SOL    HW266923   3.658   4.392   9.830 -1.2287  0.3844 -0.9296
21828SOL     OW66924   3.761   3.416   4.199  0.0398  0.8970  0.0716
21828SOL    HW166925   3.787   3.376   4.282  1.1533  0.4650 -0.4586
21828SOL    HW266926   3.693   3.359   4.164  1.3283 -0.3368 -0.4821
21829SOL     OW66927   7.226   2.720   9.282 -0.1616 -0.3689  0.2083
21829SOL    HW166928   7.199   2.638   9.323  0.0519 -0.8601 -0.6147
21829SOL    HW266929   7.169   2.786   9.322 -0.5855 -0.9612  0.6141
21830SOL     OW66930   0.012   2.126   8.471  0.4165  0.2506  0.4250
21830SOL    HW166931   0.005   2.181   8.549 -0.6562  1.0789 -0.2377
21830SOL    HW266932  -0.079   2.103   8.450  0.8124 -1.7969  0.6724
21831SOL     OW66933   3.273   1.919   0.238 -0.3229 -1.0105 -0.6412
21831SOL    HW166934   3.360   1.892   0.210  0.0317 -0.8969  0.3191
21831SOL    HW266935   3.288   1.991   0.299 -1.2262  1.4276 -3.0969
21832SOL     OW66936   1.893   6.171   1.014 -0.2336  0.5411  0.9113
21832SOL    HW166937   1.825   6.183   0.947  0.0118 -0.0543  0.5501
21832SOL    HW266938   1.858   6.104   1.072 -0.1788  0.6155  1.0315
21833SOL     OW66939   3.189   4.456   4.087  0.4128 -0.3080 -0.0732
21833SOL    HW166940   3.267   4.504   4.114  0.1113 -0.0162  0.2950
21833SOL    HW266941   3.150   4.426   4.169 -0.1537  0.0160 -0.2225
21834SOL     OW66942   4.643   0.226  10.823  0.1001  0.1584  0.1101
21834SOL    HW166943   4.730   0.190  10.842  0.4215  0.7702 -0.1702
21834SOL    HW266944   4.661   0.313  10.788 -0.5826 -0.0145 -0.7047
21835SOL     OW66945   5.668   3.538   2.943  0.5414 -0.2008 -0.1541
21835SOL    HW166946   5.706   3.570   3.024  1.1247  0.5351 -0.7032
21835SOL    HW266947   5.738   3.489   2.900  0.7838  0.8419 -0.9932
21836SOL     OW66948   7.086   5.940   3.435 -0.7192  0.0678 -0.2546
21836SOL    HW166949   7.056   5.885   3.362  0.7307  0.9357 -1.5800
21836SOL    HW266950   7.181   5.932   3.433 -0.6554  0.1174  1.5801
21837SOL     OW66951   6.987   4.267   1.329  0.1338  0.4281 -0.3552
21837SOL    HW166952   6.965   4.198   1.391 -0.2595 -0.0106 -0.9721
21837SOL    HW266953   7.064   4.310   1.367  1.1566 -1.1371 -0.5558
21838SOL     OW66954   2.513   5.581   5.565  0.1907 -0.0384  0.5450
21838SOL    HW166955   2.468   5.511   5.518 -2.0944  1.4459  0.3483
21838SOL    HW266956   2.451   5.654   5.565  1.6276  1.3100  2.5434
21839SOL     OW66957   5.908   7.276   8.337  0.0427 -0.6373  0.2926
21839SOL    HW166958   5.812   7.277   8.343  0.0654  1.6271  1.0059
21839SOL    HW266959   5.938   7.254   8.425  0.1527  1.5847  0.8600
21840SOL     OW66960   1.283   4.153   9.453 -0.5228 -0.8203  1.0163
21840SOL    HW166961   1.246   4.100   9.382  0.9543  1.1444 -1.3873
21840SOL    HW266962   1.209   4.203   9.487 -0.9326 -0.2223 -0.6513
21841SOL     OW66963   1.037   6.408  10.335 -0.2568 -0.0051 -0.1945
21841SOL    HW166964   0.963   6.352  10.310 -0.7946 -0.2033  1.6736
21841SOL    HW266965   1.061   6.379  10.423  1.5396  0.6049 -0.4316
21842SOL     OW66966   3.458   2.081   4.721 -0.4372  0.1351 -0.2857
21842SOL    HW166967   3.420   2.031   4.793  0.7454  1.2132  1.1577
21842SOL    HW266968   3.457   2.172   4.752  1.2386  0.4630 -1.0711
21843SOL     OW66969   3.711   7.769   8.991 -0.4817  0.4739  0.2765
21843SOL    HW166970   3.709   7.798   9.083  0.5010 -0.1306  0.5032
21843SOL    HW266971   3.743   7.845   8.943  0.5172  0.3144  0.6562
21844SOL     OW66972   6.894   1.151   5.694 -0.4140 -0.4790 -0.1165
21844SOL    HW166973   6.901   1.087   5.765 -0.2322 -0.1258  0.1904
21844SOL    HW266974   6.802   1.149   5.668 -0.8368  0.5255  1.2065
21845SOL     OW66975   2.729   6.063  12.420  0.9635  0.2209  0.1727
21845SOL    HW166976   2.817   6.038  12.395  0.3719 -1.7930 -0.1084
21845SOL    HW266977   2.736   6.090  12.512  1.9310  0.5374  0.0085
21846SOL     OW66978   3.956   3.595   7.538  0.1060 -0.3390 -0.2546
21846SOL    HW166979   3.873   3.620   7.577  0.5704  1.1867 -0.1513
21846SOL    HW266980   4.000   3.543   7.604  0.2576  0.9539  0.6986
21847SOL     OW66981   3.611   7.966   0.749 -0.2613 -0.9348  0.3245
21847SOL    HW166982   3.601   7.905   0.676  2.0392  0.5653 -1.3828
21847SOL    HW266983   3.572   8.047   0.718  3.1549  0.5568 -0.5355
21848SOL     OW66984   3.606   6.539   0.922  0.1098 -0.0678 -0.3651
21848SOL    HW166985   3.529   6.509   0.874  0.6489 -0.8769 -0.7378
21848SOL    HW266986   3.680   6.496   0.880  0.5838 -0.9574  1.2838
21849SOL     OW66987   2.803   2.018   8.165 -0.0520 -0.0620  0.0059
21849SOL    HW166988   2.741   1.989   8.232 -0.1907 -0.9891 -0.4953
21849SOL    HW266989   2.758   2.000   8.082  0.8542 -0.7144 -0.3680
21850SOL     OW66990   0.203   7.001  12.274  0.4893 -0.0691  0.2481
21850SOL    HW166991   0.207   6.910  12.242  0.9420  0.5951 -1.7330
21850SOL    HW266992   0.168   6.994  12.362  1.3168 -2.2594  0.4706
21851SOL     OW66993   1.130   0.843   0.325 -0.5097  0.2202 -0.0992
21851SOL    HW166994   1.164   0.920   0.280 -1.0079  0.9214  0.7023
21851SOL    HW266995   1.075   0.878   0.395 -0.0331 -0.8399  0.8456
21852SOL     OW66996   5.461   1.032   6.010  0.3339 -0.0750  0.1912
21852SOL    HW166997   5.554   1.009   6.017 -0.1553 -2.3252  0.0548
21852SOL    HW266998   5.422   0.998   6.091 -0.5098  0.0935 -0.1362
21853SOL     OW66999   3.796   4.770   6.080  0.0779 -0.3541 -0.2674
21853SOL    HW167000   3.711   4.813   6.075  0.0188 -0.4716 -0.2736
21853SOL    HW267001   3.793   4.718   6.161  0.0655 -0.5229 -0.3747
21854SOL     OW67002   4.293   0.717   7.699 -0.1574  0.7927 -0.0325
21854SOL    HW167003   4.361   0.658   7.730 -1.9054 -0.1253  2.3360
21854SOL    HW267004   4.330   0.805   7.710  1.7370  0.2697 -1.7566
21855SOL     OW67005   2.557   0.077   4.561 -0.5135 -0.0861  0.4211
21855SOL    HW167006   2.520   0.165   4.548  0.3624  0.2515  0.0830
21855SOL    HW267007   2.628   0.090   4.624 -1.0428 -0.7432  1.1682
21856SOL     OW67008   6.080   1.733   3.621 -0.0659 -0.2439 -0.4165
21856SOL    HW167009   6.127   1.698   3.546  0.5551 -0.6893  0.1635
21856SOL    HW267010   6.072   1.659   3.682 -3.0295 -0.6658 -1.1547
21857SOL     OW67011   4.736   6.478   3.851 -0.2350  0.2545 -0.6549
21857SOL    HW167012   4.814   6.432   3.882 -0.2588 -1.3072 -2.7107
21857SOL    HW267013   4.663   6.428   3.887 -0.3943  1.8591  1.4771
21858SOL     OW67014   2.293   5.898   8.352  0.4010 -0.1020 -0.4848
21858SOL    HW167015   2.249   5.952   8.417  1.3061 -0.6462  0.6260
21858SOL    HW267016   2.360   5.955   8.314 -0.7649  0.5191 -1.6911
21859SOL     OW67017   1.818   4.918   0.546 -0.4420 -0.6726 -0.1056
21859SOL    HW167018   1.811   4.853   0.615 -1.5295  0.8649  1.3126
21859SOL    HW267019   1.891   4.974   0.572  0.5912 -1.3476 -1.3925
21860SOL     OW67020   5.925   1.672   0.693  0.8067  0.2268  0.0123
21860SOL    HW167021   5.927   1.755   0.646  1.2298 -0.1343 -0.6247
21860SOL    HW267022   5.844   1.674   0.744  0.3438  0.6274 -0.7272
21861SOL     OW67023   5.443   6.474   3.310  0.0057  0.0851  0.1795
21861SOL    HW167024   5.476   6.395   3.352 -0.4858  0.3224  1.0302
21861SOL    HW267025   5.351   6.455   3.290  0.2249 -0.0122 -0.7668
21862SOL     OW67026   7.885   1.123   1.763 -0.5665 -0.3505 -0.2223
21862SOL    HW167027   7.939   1.162   1.832 -0.7906  0.7686 -0.6669
21862SOL    HW267028   7.904   1.175   1.685 -1.9217 -0.2366 -0.4998
21863SOL     OW67029   1.304   2.687   0.498  0.0287  0.0263 -0.1500
21863SOL    HW167030   1.306   2.782   0.510 -0.3768  0.0611 -0.3570
21863SOL    HW267031   1.394   2.659   0.514  0.3799  0.5668 -1.1506
21864SOL     OW67032   4.817   1.244   5.384 -0.0632  0.0374 -0.1210
21864SOL    HW167033   4.786   1.329   5.415 -0.5942 -0.5436  0.9953
21864SOL    HW267034   4.886   1.220   5.445  1.3387  0.4548 -1.4815
21865SOL     OW67035   6.161   5.128   6.323 -0.3320  0.2630  0.2761
21865SOL    HW167036   6.180   5.115   6.230  0.6368  0.5996  0.4135
21865SOL    HW267037   6.216   5.064   6.368 -2.5344 -1.5561  0.5514
21866SOL     OW67038   6.121   1.020   1.617 -0.5215 -0.3740 -0.5703
21866SOL    HW167039   6.106   1.113   1.631  1.2090 -0.2231  0.5492
21866SOL    HW267040   6.035   0.984   1.596 -1.2990  1.3730 -0.4793
21867SOL     OW67041   0.065   2.736   6.743 -0.3261  0.1943  0.0673
21867SOL    HW167042   0.015   2.677   6.799  0.1605 -0.6961 -0.4190
21867SOL    HW267043   0.152   2.738   6.783 -0.6584  1.6038  0.8121
21868SOL     OW67044   5.761   3.066   8.469  0.3732  0.4984  0.1038
21868SOL    HW167045   5.751   3.107   8.383  1.5711  1.5968  0.4474
21868SOL    HW267046   5.764   3.140   8.531  1.6078 -0.1370  0.8529
21869SOL     OW67047   3.027   4.931   8.924  0.3892 -0.5292 -0.2843
21869SOL    HW167048   3.032   4.926   9.020  0.7088  2.7958 -0.0090
21869SOL    HW267049   2.933   4.928   8.905  0.3529 -1.9823  0.0160
21870SOL     OW67050   4.229   2.299   2.425 -0.6189  0.2419  0.5397
21870SOL    HW167051   4.319   2.332   2.434 -0.1295 -0.8272 -0.2176
21870SOL    HW267052   4.185   2.327   2.505  0.1340  1.5626  0.5260
21871SOL     OW67053   0.021   3.250   1.356 -0.3698 -0.7385 -0.0466
21871SOL    HW167054   0.103   3.288   1.325  0.3893 -2.9205 -0.9389
21871SOL    HW267055  -0.035   3.325   1.375  1.2956  0.7877 -0.8571
21872SOL     OW67056   2.076   2.728   7.082 -0.1359 -0.1047 -0.5508
21872SOL    HW167057   2.040   2.733   6.993 -2.4770 -1.6219  0.2256
21872SOL    HW267058   2.134   2.651   7.080  1.1907  0.8813 -1.1688
21873SOL     OW67059   6.366   5.411   4.444  0.4451  0.8162 -0.4916
21873SOL    HW167060   6.297   5.442   4.502  0.0427  1.0991 -1.1137
21873SOL    HW267061   6.347   5.452   4.360 -0.8464 -2.0348 -1.7165
21874SOL     OW67062   2.984   6.361   8.553  0.0307  0.5740 -0.2407
21874SOL    HW167063   2.926   6.436   8.539 -1.0015  0.0074  0.8756
21874SOL    HW267064   3.009   6.366   8.645 -0.2105 -0.5429 -0.0966
21875SOL     OW67065   5.099   1.560   8.447  0.5814 -0.0254  0.5011
21875SOL    HW167066   5.042   1.506   8.501  0.2066 -1.5453 -1.3360
21875SOL    HW267067   5.050   1.574   8.366  3.4760 -3.3654 -2.1776
21876SOL     OW67068   6.388   3.877   4.508 -0.3308 -0.0582 -0.2173
21876SOL    HW167069   6.337   3.840   4.436 -0.6338 -2.3631  1.0917
21876SOL    HW267070   6.474   3.894   4.469 -0.9392  0.2895 -1.4889
21877SOL     OW67071   0.166   7.222   4.140 -0.0697 -0.3614 -0.2778
21877SOL    HW167072   0.195   7.226   4.231 -1.3318 -0.2112  0.1309
21877SOL    HW267073   0.243   7.247   4.089  0.7355 -0.7476  0.7262
21878SOL     OW67074   5.236   5.156   1.961 -0.2169  0.0014  1.0681
21878SOL    HW167075   5.224   5.125   2.051  1.2252 -0.9024  0.9897
21878SOL    HW267076   5.329   5.141   1.944 -0.7571 -1.2611 -1.0825
21879SOL     OW67077   4.148   7.085   6.222 -0.1758 -0.1487 -0.2561
21879SOL    HW167078   4.113   6.998   6.238  4.7072 -2.5627 -0.7878
21879SOL    HW267079   4.133   7.099   6.128  0.4893 -1.2644 -0.5513
21880SOL     OW67080   1.631   3.321   1.633 -0.0809 -0.3709  0.4299
21880SOL    HW167081   1.661   3.230   1.632 -0.3759 -0.4668  0.2966
21880SOL    HW267082   1.709   3.372   1.658  1.2153 -0.2313 -3.2355
21881SOL     OW67083   1.685   1.495   8.150 -0.4856 -0.5801 -0.2593
21881SOL    HW167084   1.677   1.460   8.061 -1.3651 -2.1169  0.3831
21881SOL    HW267085   1.595   1.513   8.176 -0.1637  0.7107  0.0246
21882SOL     OW67086   0.675   7.353  10.755  0.6122  0.0775 -0.5254
21882SOL    HW167087   0.644   7.334  10.843 -0.0785  0.0210 -0.7757
21882SOL    HW267088   0.732   7.279  10.733  1.4691  0.5041  0.1869
21883SOL     OW67089   0.503   7.580   4.671 -0.7859 -0.3943  0.5898
21883SOL    HW167090   0.483   7.495   4.632  0.4036 -0.7728  0.7452
21883SOL    HW267091   0.596   7.594   4.651 -0.7046  0.3949  1.4253
21884SOL     OW67092   4.729   1.091  10.629  0.5007  0.0558 -0.4297
21884SOL    HW167093   4.699   1.136  10.708 -1.4228 -0.3018 -0.8961
21884SOL    HW267094   4.701   1.000  10.642  1.5161 -0.3327 -0.8774
21885SOL     OW67095   5.573   0.069   1.303 -0.1728 -0.1128  0.0125
21885SOL    HW167096   5.632   0.095   1.374 -0.3945  1.9799 -0.5065
21885SOL    HW267097   5.631   0.051   1.229  0.0311 -1.9027  0.5706
21886SOL     OW67098   5.135   5.516   5.561 -0.1484  0.3697  0.0031
21886SOL    HW167099   5.065   5.569   5.521 -0.2934  0.2169  0.0554
21886SOL    HW267100   5.216   5.556   5.528 -0.2689 -0.4974 -1.4299
21887SOL     OW67101   6.012   6.626   7.247 -0.4390  0.0490  0.1559
21887SOL    HW167102   5.957   6.597   7.174 -0.3389  2.4797 -1.0135
21887SOL    HW267103   5.951   6.639   7.320 -0.8230 -0.7435 -0.0182
21888SOL     OW67104   1.044   6.351  11.381  0.6565 -0.0938 -0.8411
21888SOL    HW167105   0.963   6.318  11.341  0.0728 -0.5122  0.5896
21888SOL    HW267106   1.103   6.275  11.381 -0.0435 -0.6912  0.8021
21889SOL     OW67107   2.874   0.620   7.107  1.0918  0.0783  0.2595
21889SOL    HW167108   2.906   0.666   7.029 -1.2711 -0.3691 -1.0467
21889SOL    HW267109   2.853   0.690   7.169  0.8004  0.5708 -0.3838
21890SOL     OW67110   7.382   1.457   1.156 -0.1477  0.8304 -0.3596
21890SOL    HW167111   7.326   1.411   1.093  1.0701  0.3583 -1.1401
21890SOL    HW267112   7.413   1.389   1.215  0.0593  0.9865 -0.2876
21891SOL     OW67113   1.543   3.065   3.936 -0.0843 -0.1476 -0.4356
21891SOL    HW167114   1.605   2.994   3.954 -1.3810 -1.2123  0.0024
21891SOL    HW267115   1.593   3.127   3.884  1.4611 -0.7871  0.2003
21892SOL     OW67116   3.989   2.493   1.830 -0.2331 -0.0978  0.3750
21892SOL    HW167117   4.000   2.519   1.739 -2.1176 -0.0657  0.1204
21892SOL    HW267118   4.076   2.502   1.869  0.2385  1.5331 -0.9816
21893SOL     OW67119   7.729   6.342   2.308  0.7809  0.1508 -0.3208
21893SOL    HW167120   7.798   6.330   2.372  1.3359  0.0088 -0.9328
21893SOL    HW267121   7.714   6.254   2.272  0.0460  0.1200  0.0382
21894SOL     OW67122   4.570   6.387   4.825 -0.1423 -0.7230 -0.2913
21894SOL    HW167123   4.524   6.433   4.755  1.2697  2.3637  0.6519
21894SOL    HW267124   4.509   6.319   4.853 -1.2736 -1.2431 -3.5645
21895SOL     OW67125   3.634   5.087   6.626 -0.1984  0.3434  0.2103
21895SOL    HW167126   3.601   5.050   6.544 -0.3144 -0.3473  0.5590
21895SOL    HW267127   3.629   5.015   6.688  1.3903  0.4039  0.4411
21896SOL     OW67128   3.252   7.154   7.406  0.0572  0.4432  0.0552
21896SOL    HW167129   3.203   7.119   7.332  0.3001  0.2243 -0.0070
21896SOL    HW267130   3.204   7.232   7.433 -1.2872 -0.7027  1.0867
21897SOL     OW67131   3.174   1.195  10.757  0.2309 -0.6450 -0.1495
21897SOL    HW167132   3.125   1.257  10.703 -0.7562 -0.7644  0.5827
21897SOL    HW267133   3.151   1.109  10.722  0.3161 -0.6762 -0.1292
21898SOL     OW67134   4.069   6.316   7.201 -0.2060 -0.4081  0.2284
21898SOL    HW167135   3.975   6.307   7.215 -0.1124 -0.2043  1.0496
21898SOL    HW267136   4.100   6.364   7.278  0.1399  2.1297 -1.3944
21899SOL     OW67137   5.882   0.606   1.325 -0.1971 -0.3253 -0.0460
21899SOL    HW167138   5.821   0.646   1.386 -1.1087  0.2450 -1.2968
21899SOL    HW267139   5.919   0.679   1.275  0.4883 -0.7811 -0.2246
21900SOL     OW67140   2.652   1.525   3.202 -0.1960  0.3254 -0.0643
21900SOL    HW167141   2.660   1.614   3.168 -0.5873  0.2066 -0.4728
21900SOL    HW267142   2.558   1.515   3.222 -0.1203  0.0782  0.1775
21901SOL     OW67143   7.355   6.262  11.537 -0.4848  0.2410  0.3499
21901SOL    HW167144   7.382   6.268  11.445 -0.9378  1.0591  0.2581
21901SOL    HW267145   7.277   6.317  11.542 -2.0673 -1.8983  0.6386
21902SOL     OW67146   7.835   3.140   6.398 -0.0748 -0.1409 -0.4145
21902SOL    HW167147   7.804   3.059   6.357 -0.5584 -0.2996  0.2400
21902SOL    HW267148   7.847   3.201   6.325 -0.6637 -0.4927 -0.8167
21903SOL     OW67149   7.501   2.374   3.347 -0.0977 -0.4639  0.0026
21903SOL    HW167150   7.536   2.301   3.295  0.7302  1.1492 -1.8176
21903SOL    HW267151   7.483   2.443   3.283 -2.3437  0.4241  1.4737
21904SOL     OW67152   6.292   0.972   9.885 -0.3202  0.1062 -0.3564
21904SOL    HW167153   6.361   0.908   9.864 -0.1876 -0.4104  1.4999
21904SOL    HW267154   6.339   1.053   9.905 -0.2513 -0.1339  0.5021
21905SOL     OW67155   0.884   0.393   5.596 -0.1491 -0.4296 -0.1708
21905SOL    HW167156   0.833   0.435   5.665  1.6804 -0.7728  1.4765
21905SOL    HW267157   0.952   0.456   5.575 -1.7162  0.4814 -3.1154
21906SOL     OW67158   7.481   2.019  12.164  0.1935 -0.0642 -0.1724
21906SOL    HW167159   7.561   2.041  12.116  0.5959 -0.5203  0.2749
21906SOL    HW267160   7.431   1.963  12.103  0.0433  0.5024 -0.5834
21907SOL     OW67161   7.133   7.851   0.028 -0.1366 -0.6626 -0.2109
21907SOL    HW167162   7.147   7.911   0.102  1.8582  0.9518 -1.7564
21907SOL    HW267163   7.132   7.764   0.067  0.3474  0.1592  1.7579
21908SOL     OW67164   0.426   4.228   5.927 -0.0953 -0.4248  0.0905
21908SOL    HW167165   0.458   4.318   5.935 -0.5363 -0.4116  2.2791
21908SOL    HW267166   0.442   4.205   5.835  0.5593  1.6674 -0.3744
21909SOL     OW67167   6.482   5.300  12.278 -0.3678 -0.1521 -0.3993
21909SOL    HW167168   6.541   5.323  12.349  1.5668  1.2524 -2.3390
21909SOL    HW267169   6.442   5.383  12.251 -1.1162 -0.6657 -0.9260
21910SOL     OW67170   3.815   7.038   6.864  0.0371 -0.3437 -0.0042
21910SOL    HW167171   3.739   7.000   6.819  0.3360 -0.8011 -0.1295
21910SOL    HW267172   3.807   7.006   6.954 -0.0451 -0.2033  0.0383
21911SOL     OW67173   5.468   2.048   3.892 -0.0931  0.1431  0.3853
21911SOL    HW167174   5.544   2.062   3.949  0.2501  1.6149 -0.3875
21911SOL    HW267175   5.394   2.080   3.942 -0.0410 -0.1778  0.6718
21912SOL     OW67176   2.034   4.316   1.580 -0.2801  0.0481 -0.1948
21912SOL    HW167177   2.078   4.394   1.546 -0.5914  0.3912  0.1724
21912SOL    HW267178   2.070   4.243   1.529 -0.6915  0.5367 -1.2067
21913SOL     OW67179   0.300   6.611   5.801 -0.3365  0.2301  0.3095
21913SOL    HW167180   0.220   6.558   5.804 -0.7285  0.8474  1.3226
21913SOL    HW267181   0.288   6.669   5.726  0.7211 -2.0197 -1.6986
21914SOL     OW67182   2.456   6.502   7.729 -0.3131  0.3503 -0.4717
21914SOL    HW167183   2.479   6.588   7.763  0.7325 -0.3061  0.5944
21914SOL    HW267184   2.421   6.518   7.642 -0.5259  1.8740 -0.1287
21915SOL     OW67185   6.565   6.646   0.921 -0.4606 -0.7447  0.0291
21915SOL    HW167186   6.640   6.698   0.951 -1.7382  0.6403  1.0040
21915SOL    HW267187   6.594   6.606   0.839  0.9724  0.6338 -0.1815
21916SOL     OW67188   6.621   0.371  10.472  0.1124  0.0742  0.1375
21916SOL    HW167189   6.611   0.436  10.542  0.6149 -0.8961  1.1558
21916SOL    HW267190   6.715   0.372  10.453  0.1963 -0.6655  0.4899
21917SOL     OW67191   0.452   3.008   7.250  0.1311 -0.9108  0.4088
21917SOL    HW167192   0.460   2.930   7.304 -0.3332 -2.8909 -2.2028
21917SOL    HW267193   0.402   2.980   7.174 -2.0717  2.5146  0.3569
21918SOL     OW67194   5.918   7.049  11.506 -0.1950  0.8574  0.2902
21918SOL    HW167195   5.845   7.034  11.567 -0.9727  1.0813 -0.5514
21918SOL    HW267196   5.973   6.971  11.515 -0.1008  1.0420  1.5240
21919SOL     OW67197   3.438   5.622   2.873 -0.1593 -0.2638  0.3785
21919SOL    HW167198   3.387   5.566   2.814  1.5695 -0.8932 -0.5908
21919SOL    HW267199   3.497   5.561   2.918  2.2643  0.7698 -1.1984
21920SOL     OW67200   7.362   5.987   1.511  0.1897 -0.1232  0.5543
21920SOL    HW167201   7.288   5.941   1.471  1.0318  0.2201 -1.5013
21920SOL    HW267202   7.391   5.929   1.582 -0.6631 -1.3037 -0.0328
21921SOL     OW67203   1.996   3.594   5.078 -0.3272 -0.1612  0.0220
21921SOL    HW167204   2.045   3.615   4.999  1.1611 -0.2273  0.8778
21921SOL    HW267205   1.946   3.673   5.098  0.0423  0.1949 -0.4450
21922SOL     OW67206   7.977   5.804  10.857 -0.4920  0.0713 -0.0055
21922SOL    HW167207   7.893   5.800  10.810  0.2559  1.8161 -1.6392
21922SOL    HW267208   7.986   5.895  10.883  0.4606 -0.2921  1.0141
21923SOL     OW67209   0.848   1.374   6.622  0.2634  0.4128  0.0274
21923SOL    HW167210   0.848   1.308   6.692 -0.0115  0.4919  0.1038
21923SOL    HW267211   0.938   1.374   6.589  0.3401  0.2168  0.2321
21924SOL     OW67212   2.575   0.163  11.980 -0.1783 -0.2254  0.3975
21924SOL    HW167213   2.594   0.252  11.950 -0.1465 -0.9391 -1.8750
21924SOL    HW267214   2.494   0.171  12.030 -0.4000  1.0114 -0.1197
21925SOL     OW67215   3.715   5.658   3.628  1.2403  0.2921 -0.3569
21925SOL    HW167216   3.736   5.609   3.708 -1.3469 -0.8330 -0.2465
21925SOL    HW267217   3.710   5.750   3.657  0.8131 -0.0442  0.7009
21926SOL     OW67218   1.948   0.922  11.377  0.3375  0.1780 -0.0254
21926SOL    HW167219   1.953   0.948  11.285 -0.0180 -0.4573 -0.2222
21926SOL    HW267220   1.990   0.837  11.381 -1.2113 -0.6131  0.0789
21927SOL     OW67221   1.421   3.362   9.208  0.2377  0.2724 -0.2302
21927SOL    HW167222   1.499   3.354   9.152  0.0250 -0.1031 -0.4791
21927SOL    HW267223   1.446   3.317   9.289  0.1135 -0.2862 -0.4936
21928SOL     OW67224   1.167   4.944   1.595 -0.2219  0.6999 -0.1311
21928SOL    HW167225   1.080   4.974   1.621 -1.2754 -1.7000 -0.6035
21928SOL    HW267226   1.223   5.021   1.602 -2.5033  2.4694 -0.3837
21929SOL     OW67227   1.490   7.490   7.919  0.6312 -0.0290 -0.6847
21929SOL    HW167228   1.561   7.499   7.983 -0.5526  0.4582  0.6043
21929SOL    HW267229   1.516   7.414   7.866  1.5408 -0.6059  0.5261
21930SOL     OW67230   7.378   7.568   3.394  0.6229 -0.1396 -0.1503
21930SOL    HW167231   7.451   7.616   3.433 -0.4018  0.3027  1.3232
21930SOL    HW267232   7.416   7.483   3.369  1.7843  0.3406 -0.0866
21931SOL     OW67233   0.025   2.483   5.610  0.6324  0.2705 -0.3246
21931SOL    HW167234   0.069   2.503   5.528  0.6268  0.5323 -0.2676
21931SOL    HW267235   0.041   2.390   5.625  0.5670  0.2035 -0.6593
21932SOL     OW67236   1.047   7.080   3.045  0.6153 -0.3566 -0.1210
21932SOL    HW167237   1.065   6.991   3.076 -1.2362 -0.3879  1.0096
21932SOL    HW267238   1.113   7.134   3.088  0.3886 -0.9094  0.9507
21933SOL     OW67239   5.928   7.059   3.346  0.1301 -0.3234  0.1118
21933SOL    HW167240   5.839   7.076   3.317 -0.1921 -1.5933  0.3094
21933SOL    HW267241   5.923   7.053   3.441  0.3050 -1.0106  0.0843
21934SOL     OW67242   2.080   4.114   7.788  0.4625 -0.2484  0.0534
21934SOL    HW167243   2.065   4.103   7.882  0.1021 -2.4628 -0.2137
21934SOL    HW267244   1.994   4.103   7.748  0.4478  1.6228 -0.5121
21935SOL     OW67245   7.676   7.447   5.043 -0.1430 -0.2279 -0.0230
21935SOL    HW167246   7.687   7.508   4.969  2.8800  1.2843  1.4823
21935SOL    HW267247   7.736   7.375   5.023 -0.8937 -0.8714  0.0013
21936SOL     OW67248   1.368   4.673   3.525 -0.2158  0.7756  0.6063
21936SOL    HW167249   1.274   4.680   3.509  0.0243  1.0041 -0.9008
21936SOL    HW267250   1.403   4.631   3.446  0.6517 -1.6748  2.1632
21937SOL     OW67251   1.436   1.472   6.496 -0.5835  0.0888  0.1739
21937SOL    HW167252   1.487   1.441   6.422 -1.0715 -0.1042 -0.0815
21937SOL    HW267253   1.418   1.564   6.476 -0.4642  0.1176  0.1965
21938SOL     OW67254   0.287   6.637  11.710  0.0494  0.5280  0.0501
21938SOL    HW167255   0.383   6.637  11.711  0.0482 -0.0009  0.8054
21938SOL    HW267256   0.262   6.638  11.802 -0.6634 -0.7647 -0.1002
21939SOL     OW67257   3.458   0.475   8.621 -0.0769 -0.2744  0.1863
21939SOL    HW167258   3.427   0.465   8.711 -0.0219 -0.4289  0.1877
21939SOL    HW267259   3.378   0.487   8.570 -0.2348 -1.7938  0.0344
21940SOL     OW67260   7.587   2.570   3.792 -0.0367 -0.3051  0.6448
21940SOL    HW167261   7.577   2.478   3.768 -1.4121  0.1911 -0.9161
21940SOL    HW267262   7.667   2.598   3.747 -0.5777 -0.3382 -0.3927
21941SOL     OW67263   3.552   1.968   9.119  0.2774 -0.2128  0.4942
21941SOL    HW167264   3.528   2.013   9.200 -0.9724 -0.5358  0.3108
21941SOL    HW267265   3.589   1.884   9.148  1.1188  0.2448  0.7720
21942SOL     OW67266   1.430   0.727   5.791 -0.0735 -0.0470  0.7744
21942SOL    HW167267   1.514   0.728   5.836  1.1204 -0.1783 -1.3328
21942SOL    HW267268   1.424   0.813   5.749 -0.2162 -0.5942 -0.3785
21943SOL     OW67269   4.546   0.481  10.429 -0.2212  0.2023 -0.4212
21943SOL    HW167270   4.510   0.412  10.374  0.4058 -0.4764 -0.0042
21943SOL    HW267271   4.600   0.533  10.369  1.0143 -0.9392 -0.3480
21944SOL     OW67272   3.264   7.369  12.025  0.3921  0.4203 -0.1740
21944SOL    HW167273   3.299   7.453  12.056  0.4903  0.2517  0.1743
21944SOL    HW267274   3.241   7.322  12.104  1.6256 -0.4383 -0.2993
21945SOL     OW67275   7.303   1.870   8.408  0.2949  0.2110 -0.1502
21945SOL    HW167276   7.248   1.921   8.468 -1.6874 -1.9035 -0.0407
21945SOL    HW267277   7.267   1.889   8.322  2.0051  1.8569 -0.5695
21946SOL     OW67278   7.028   2.522  11.493  0.0638 -0.0173  0.3202
21946SOL    HW167279   7.009   2.515  11.586  1.5268 -3.3045  0.5121
21946SOL    HW267280   7.123   2.537  11.489  0.3221 -1.7228 -0.6045
21947SOL     OW67281   3.891   3.732   1.437  0.0390  0.4176  0.2336
21947SOL    HW167282   3.974   3.696   1.407 -0.3229 -1.4237  1.2918
21947SOL    HW267283   3.911   3.824   1.458  1.7087  0.1093  0.1309
21948SOL     OW67284   0.927   4.261   8.325 -0.6313  0.5172  0.0023
21948SOL    HW167285   0.998   4.294   8.269 -1.9403  1.6534 -1.0851
21948SOL    HW267286   0.969   4.197   8.381  0.8469 -0.4941 -2.1024
21949SOL     OW67287   4.540   0.277   2.332 -0.4466  0.1381  0.5823
21949SOL    HW167288   4.615   0.292   2.274  0.5296  1.0118  1.9974
21949SOL    HW267289   4.528   0.182   2.332  0.2918  0.0343 -0.1305
21950SOL     OW67290   4.633   1.286   2.269 -0.0262 -0.2714  0.2133
21950SOL    HW167291   4.594   1.277   2.182  0.9484 -0.1975 -0.2436
21950SOL    HW267292   4.573   1.343   2.316  0.3186  1.1723 -0.9975
21951SOL     OW67293   2.823   3.913   9.263 -0.2152 -0.7301  0.3536
21951SOL    HW167294   2.754   3.960   9.310 -0.4189 -0.8225  0.1520
21951SOL    HW267295   2.811   3.939   9.171  0.1907 -0.5359  0.3525
21952SOL     OW67296   1.423   0.484  10.354 -0.0669  0.1553 -0.3063
21952SOL    HW167297   1.340   0.526  10.331 -0.7579 -0.6870  0.5776
21952SOL    HW267298   1.444   0.520  10.441 -0.6012 -1.1864  0.4016
21953SOL     OW67299   5.871   5.892   5.789  0.0519 -0.2884  0.6459
21953SOL    HW167300   5.960   5.904   5.821  0.7276  1.1685 -1.5551
21953SOL    HW267301   5.827   5.975   5.810  0.2706  0.3641 -1.2889
21954SOL     OW67302   1.497   4.133  10.692  0.7747  0.1501  0.2711
21954SOL    HW167303   1.504   4.172  10.605  0.5514  0.3462  0.3408
21954SOL    HW267304   1.510   4.039  10.677 -0.7035 -0.0061 -0.1798
21955SOL     OW67305   2.668   7.525  11.982  0.1059 -0.1108  0.1517
21955SOL    HW167306   2.599   7.522  12.049  0.1548 -0.4102  0.1898
21955SOL    HW267307   2.750   7.524  12.031  0.1462 -0.7195  0.0781
21956SOL     OW67308   4.959   7.459   6.514 -0.8559  0.0820  0.2600
21956SOL    HW167309   4.962   7.386   6.576 -3.0948  0.9876  1.5729
21956SOL    HW267310   4.866   7.483   6.511 -0.0120  4.1114  1.3970
21957SOL     OW67311   1.783   3.938   6.263  0.3226  0.1091  0.3771
21957SOL    HW167312   1.878   3.923   6.257  0.1204 -0.6717 -1.8837
21957SOL    HW267313   1.754   3.882   6.335  1.5886  0.5559  1.2718
21958SOL     OW67314   2.202   6.260   4.679 -0.8174 -0.4940  0.8515
21958SOL    HW167315   2.135   6.192   4.689 -0.9674 -0.7388 -1.4387
21958SOL    HW267316   2.225   6.258   4.587  0.5970  1.2741  1.1165
21959SOL     OW67317   6.057   3.182   3.463  0.4670 -0.5902  0.2074
21959SOL    HW167318   6.005   3.245   3.512 -1.0631 -0.9722 -0.8610
21959SOL    HW267319   6.142   3.180   3.508 -0.2112  0.5414  1.5905
21960SOL     OW67320   7.178   7.010   3.265  0.9046 -0.5018  0.1226
21960SOL    HW167321   7.210   7.066   3.195 -0.8999  0.5199  0.0631
21960SOL    HW267322   7.105   7.058   3.304  0.6271 -1.8973  1.4461
21961SOL     OW67323   1.699   5.470   2.972 -0.5582  0.0951 -0.0333
21961SOL    HW167324   1.641   5.543   2.993  0.9162  1.3094 -0.0167
21961SOL    HW267325   1.680   5.450   2.880 -1.8937 -0.3988  0.3307
21962SOL     OW67326   3.173   5.527   2.508 -0.5878 -0.3457 -0.4177
21962SOL    HW167327   3.208   5.615   2.498 -0.9339 -0.3353 -1.7220
21962SOL    HW267328   3.220   5.491   2.583 -1.3974  1.3986  0.9830
21963SOL     OW67329   1.903   4.558   5.480 -0.7291 -0.0509 -0.5063
21963SOL    HW167330   1.913   4.482   5.423 -0.4017  0.1007 -0.6582
21963SOL    HW267331   1.942   4.630   5.431  1.6253 -0.3282  0.7861
21964SOL     OW67332   2.493   0.675   4.766 -0.2047 -0.6825  0.1278
21964SOL    HW167333   2.512   0.694   4.674  0.3780 -0.4863  0.2892
21964SOL    HW267334   2.398   0.688   4.774  0.1691  2.6820  0.3218
21965SOL     OW67335   0.411   6.145   8.599  0.1832  0.0760 -0.3705
21965SOL    HW167336   0.446   6.213   8.541  1.1427  1.0336  1.2743
21965SOL    HW267337   0.317   6.141   8.578  0.5755  0.0368 -2.3021
21966SOL     OW67338   3.075   3.713  10.661  0.0087  0.4463  0.0274
21966SOL    HW167339   3.079   3.722  10.757 -0.9381  0.4375  0.0709
21966SOL    HW267340   2.982   3.703  10.641  0.2573 -0.3750 -0.8237
21967SOL     OW67341   0.849   3.922   9.450 -0.4942 -0.0358  0.3796
21967SOL    HW167342   0.914   3.921   9.380  0.2081 -0.5338  1.0242
21967SOL    HW267343   0.772   3.879   9.413 -0.3284  0.2127 -0.2645
21968SOL     OW67344   4.411   5.948  11.864  0.3679  0.5167  0.0236
21968SOL    HW167345   4.365   6.032  11.865 -0.7375 -0.0683  0.2946
21968SOL    HW267346   4.455   5.944  11.949  3.3174  2.3085 -1.2835
21969SOL     OW67347   2.922   6.127   2.147  0.0756 -0.2277 -0.0704
21969SOL    HW167348   2.903   6.212   2.106  1.1401 -0.2580 -0.6638
21969SOL    HW267349   2.904   6.140   2.240  2.2983  1.3379  0.2196
21970SOL     OW67350   6.077   5.362   2.148 -0.2529  0.1395  0.3777
21970SOL    HW167351   6.151   5.308   2.124 -0.3235 -0.3250  1.1734
21970SOL    HW267352   6.107   5.452   2.135  0.5786 -0.0338  1.0473
21971SOL     OW67353   3.362   7.298   8.599 -0.1709  0.4035 -0.2140
21971SOL    HW167354   3.414   7.234   8.550  0.1553  0.9653 -0.6143
21971SOL    HW267355   3.360   7.264   8.688 -0.8981 -0.7163 -0.6301
21972SOL     OW67356   4.378   5.017  12.079  0.0375  0.2441  0.0399
21972SOL    HW167357   4.285   5.021  12.102  0.3039  0.7417  1.1047
21972SOL    HW267358   4.389   5.082  12.010 -0.4180  0.1490 -0.1210
21973SOL     OW67359   1.034   5.556   7.619  0.3984 -0.4484  0.5427
21973SOL    HW167360   0.977   5.632   7.605  0.1254 -1.0030 -1.6343
21973SOL    HW267361   0.987   5.503   7.683 -0.1612  0.4599  0.9089
21974SOL     OW67362   7.011   7.162   7.621 -0.2295  0.1200  0.0235
21974SOL    HW167363   6.922   7.134   7.641 -0.8037  1.5569 -0.3829
21974SOL    HW267364   7.000   7.241   7.568  1.2697  1.5029  1.6354
21975SOL     OW67365   5.598   3.516   8.782  0.5354  0.4948  0.4943
21975SOL    HW167366   5.641   3.431   8.791  0.8683  0.6592  0.4457
21975SOL    HW267367   5.539   3.506   8.707  3.1753  1.3816 -1.8589
21976SOL     OW67368   0.274   5.142   7.846  0.0245 -0.5973 -0.2494
21976SOL    HW167369   0.324   5.200   7.904 -1.0755 -0.9026  1.0771
21976SOL    HW267370   0.330   5.130   7.769  1.1632  0.5410  0.3619
21977SOL     OW67371   2.445   5.635   6.595 -0.0648  0.9357  0.9064
21977SOL    HW167372   2.384   5.686   6.541  0.5461  0.6314 -0.1081
21977SOL    HW267373   2.392   5.565   6.632 -0.6052  1.4468  1.1064
21978SOL     OW67374   0.779   0.166   5.490  0.7884  0.1189 -0.4954
21978SOL    HW167375   0.800   0.170   5.397  1.5540  0.0066 -0.3323
21978SOL    HW267376   0.816   0.246   5.527  1.7843 -0.5268 -0.0457
21979SOL     OW67377   6.032   7.180  11.042  0.2813 -0.1900  0.1951
21979SOL    HW167378   6.123   7.177  11.070  0.1172  0.1071  0.7733
21979SOL    HW267379   5.994   7.252  11.092 -0.0655  0.2466 -0.6634
21980SOL     OW67380   5.637   2.002   0.590 -0.5355  0.0806  0.3367
21980SOL    HW167381   5.707   1.967   0.535 -0.4052  2.6260 -1.3021
21980SOL    HW267382   5.683   2.048   0.661 -0.6829 -1.9390  1.8005
21981SOL     OW67383   7.227   3.305   6.490 -0.3102 -0.2537  0.0793
21981SOL    HW167384   7.254   3.281   6.579 -1.5861 -0.0617  0.5458
21981SOL    HW267385   7.232   3.400   6.488  2.3446 -0.3421 -0.9709
21982SOL     OW67386   6.580   6.446   1.275 -0.3117  0.0836  0.1024
21982SOL    HW167387   6.603   6.523   1.222 -0.4025  0.2827  0.3553
21982SOL    HW267388   6.529   6.481   1.348 -0.1110 -0.1831  0.3725
21983SOL     OW67389   5.676   1.600  10.795 -0.3283 -0.2534 -0.2038
21983SOL    HW167390   5.692   1.607  10.889  0.3095  3.2486 -0.4360
21983SOL    HW267391   5.584   1.623  10.784  0.0040  1.0289 -0.5037
21984SOL     OW67392   3.545   4.037   1.572 -0.5965 -0.4135 -0.1398
21984SOL    HW167393   3.575   4.059   1.484  1.1577 -1.0864  0.2525
21984SOL    HW267394   3.459   3.996   1.559 -0.1553 -0.9273 -1.5813
21985SOL     OW67395   7.319   7.166   2.127  0.3098  0.2118 -0.5661
21985SOL    HW167396   7.306   7.239   2.066 -1.1930  1.1317  0.7850
21985SOL    HW267397   7.244   7.109   2.111 -0.9240  1.1957  1.3478
21986SOL     OW67398   6.245   4.580   4.876  0.7641  0.1480 -0.2936
21986SOL    HW167399   6.253   4.489   4.847 -1.3793 -0.0484 -0.3777
21986SOL    HW267400   6.214   4.627   4.798  0.5281  0.7023  0.1314
21987SOL     OW67401   0.949   4.966   9.453  0.5360 -0.0994 -0.0218
21987SOL    HW167402   1.024   4.918   9.418 -0.8377 -2.0226 -0.5078
21987SOL    HW267403   0.880   4.900   9.461 -0.0927  0.7775  3.7468
21988SOL     OW67404   0.254   6.652  11.211  0.3353 -0.1219  0.3617
21988SOL    HW167405   0.332   6.598  11.213 -0.2546 -1.0618 -0.6941
21988SOL    HW267406   0.202   6.624  11.286  0.2848 -0.6424  0.1357
21989SOL     OW67407   4.117   0.008   6.025 -0.0742  0.7281  0.3812
21989SOL    HW167408   4.058  -0.064   6.004  0.6838 -0.2962  1.6415
21989SOL    HW267409   4.200  -0.016   5.985 -0.3291  1.8983 -0.9125
21990SOL     OW67410   7.862   2.690   2.921  0.1833 -0.1296  0.2101
21990SOL    HW167411   7.839   2.614   2.867  0.5125  0.2003 -0.4059
21990SOL    HW267412   7.890   2.653   3.005  1.5725 -0.7833 -0.5053
21991SOL     OW67413   1.803   2.886   5.690  0.4895  0.3697 -0.1262
21991SOL    HW167414   1.877   2.943   5.669  0.2793  0.6510 -0.1071
21991SOL    HW267415   1.745   2.891   5.614 -1.7691  3.7693  1.5258
21992SOL     OW67416   6.679   2.995  11.284  0.2147 -0.0634 -0.2430
21992SOL    HW167417   6.638   3.075  11.317  1.4147  0.4043  0.1628
21992SOL    HW267418   6.630   2.924  11.326 -0.1303  0.4794  0.2869
21993SOL     OW67419   0.806   4.546  12.156  0.0596  0.2687 -0.1800
21993SOL    HW167420   0.760   4.567  12.075 -0.5532 -0.8850 -0.1561
21993SOL    HW267421   0.741   4.501  12.210  0.7448  0.1098  0.5357
21994SOL     OW67422   2.239   3.283   9.411  0.0695  0.4430 -0.3566
21994SOL    HW167423   2.316   3.255   9.462  0.3788 -0.9092 -1.4983
21994SOL    HW267424   2.271   3.355   9.357 -0.0884  1.4398  0.8409
21995SOL     OW67425   7.917   4.202  11.513 -0.7043  0.1997 -0.6323
21995SOL    HW167426   7.974   4.248  11.451 -0.3391  0.3380 -0.1953
21995SOL    HW267427   7.930   4.248  11.596 -0.0771 -0.8841 -0.1024
21996SOL     OW67428   2.311   4.534  11.090  0.3493  0.2236  0.1539
21996SOL    HW167429   2.403   4.541  11.115  0.4466 -0.9470  0.1688
21996SOL    HW267430   2.300   4.443  11.064 -0.4767  0.6998 -1.2363
21997SOL     OW67431   1.683   4.390  10.090  0.3489 -0.1095 -0.0767
21997SOL    HW167432   1.758   4.334  10.106  0.3697 -0.0442  0.0526
21997SOL    HW267433   1.663   4.429  10.175  0.3413  0.0880 -0.1684
21998SOL     OW67434   1.202   1.891   4.005  0.4887 -0.3165 -0.0669
21998SOL    HW167435   1.265   1.955   3.971 -0.9725  0.5857 -1.1870
21998SOL    HW267436   1.252   1.810   4.013  2.1126  0.6729  0.3432
21999SOL     OW67437   0.946   2.439   9.764 -0.2316 -0.2578  0.0235
21999SOL    HW167438   0.972   2.400   9.848  0.4680 -1.3522 -0.6704
21999SOL    HW267439   0.852   2.457   9.775  0.0306  0.4511  1.3381
22000SOL     OW67440   7.718   7.251   4.348  0.6168  0.2623 -0.7253
22000SOL    HW167441   7.663   7.281   4.421  2.0010  0.1607  0.4256
22000SOL    HW267442   7.752   7.331   4.309  0.6405  0.3050 -0.6189
22001SOL     OW67443   5.213   1.270  11.363 -0.5375  0.7462  0.4350
22001SOL    HW167444   5.145   1.218  11.320 -0.7088  0.7186  0.7344
22001SOL    HW267445   5.229   1.343  11.304 -1.3577  1.1552  0.7066
22002SOL     OW67446   0.434   7.727   8.215  0.2198  0.3851  0.6955
22002SOL    HW167447   0.342   7.742   8.190 -0.7788  0.1607  3.8599
22002SOL    HW267448   0.481   7.802   8.177 -1.2568  0.5917 -0.8640
22003SOL     OW67449   2.340   7.670   2.610 -0.0216  0.1120 -0.6621
22003SOL    HW167450   2.246   7.688   2.607  0.0395  0.3028 -2.4147
22003SOL    HW267451   2.368   7.702   2.696 -2.1560 -3.3296  1.5547
22004SOL     OW67452   4.007   5.643   1.556  0.7589  0.1010 -0.2923
22004SOL    HW167453   3.975   5.585   1.487 -1.6433 -0.2738  1.0123
22004SOL    HW267454   4.097   5.662   1.532 -0.0063  0.1842 -3.6423
22005SOL     OW67455   3.519   0.269  11.457 -0.1378 -0.1989  0.0545
22005SOL    HW167456   3.529   0.304  11.369  4.1869  0.5353  0.6331
22005SOL    HW267457   3.490   0.179  11.443  1.6377 -0.5117 -2.2534
22006SOL     OW67458   0.910   5.994   9.404  0.1609 -0.0115 -0.1518
22006SOL    HW167459   0.879   6.085   9.402 -0.3764 -0.1755  0.3654
22006SOL    HW267460   0.831   5.942   9.422  0.5147 -0.5548 -0.1364
22007SOL     OW67461   6.295   7.205   0.027  0.3405 -0.3870  0.2108
22007SOL    HW167462   6.324   7.122   0.064 -0.5588 -1.1232 -0.7204
22007SOL    HW267463   6.371   7.263   0.037 -0.1260 -0.1987  4.1261
22008SOL     OW67464   5.577   6.049   9.735 -0.0666  0.0943  0.0899
22008SOL    HW167465   5.578   6.023   9.643  1.7330  1.5941 -0.3892
22008SOL    HW267466   5.490   6.085   9.750 -0.3385 -0.0583 -1.0670
22009SOL     OW67467   0.305   3.992  11.021 -0.0011 -0.3713 -0.0071
22009SOL    HW167468   0.364   4.025  11.089 -0.2498  2.5772 -1.0363
22009SOL    HW267469   0.217   4.006  11.057 -0.1179 -1.6768  0.2376
22010SOL     OW67470   3.041   4.402  12.267  0.8473 -0.7342 -0.0222
22010SOL    HW167471   3.132   4.425  12.284  0.7287 -0.9635  1.0016
22010SOL    HW267472   3.024   4.434  12.178  1.8029 -0.3354 -0.0733
22011SOL     OW67473   0.733   2.781  12.114 -0.2735 -0.4579 -0.2623
22011SOL    HW167474   0.813   2.731  12.131 -0.4002 -0.3726  0.6344
22011SOL    HW267475   0.688   2.732  12.045  0.2194 -0.8801 -0.2880
22012SOL     OW67476   4.196   1.277   2.408  0.4800  0.2134 -0.3457
22012SOL    HW167477   4.154   1.204   2.362 -0.7823  2.3107 -2.8109
22012SOL    HW267478   4.126   1.314   2.461  0.1158  1.6061 -1.7372
22013SOL     OW67479   4.169   2.260   6.417 -0.2262 -0.4186  0.4062
22013SOL    HW167480   4.120   2.290   6.340  1.7011  0.5712 -0.5312
22013SOL    HW267481   4.103   2.248   6.485 -1.7598  0.7711 -0.7925
22014SOL     OW67482   3.943   5.713   1.121 -0.2537  0.0179 -0.0901
22014SOL    HW167483   3.990   5.791   1.150  0.6890 -0.2621 -0.8186
22014SOL    HW267484   3.854   5.744   1.101  0.7232  1.4413 -2.7124
22015SOL     OW67485   1.322   7.156   6.050 -0.3123  0.1293 -0.0072
22015SOL    HW167486   1.238   7.110   6.046 -1.5309  2.1103  1.1493
22015SOL    HW267487   1.343   7.176   5.959 -1.0317 -0.4590 -0.3158
22016SOL     OW67488   1.134   3.051   4.838  0.5813 -0.2756  0.0826
22016SOL    HW167489   1.228   3.047   4.857  0.4476 -1.1150  0.6166
22016SOL    HW267490   1.122   3.135   4.794  1.5995 -0.2018 -0.0838
22017SOL     OW67491   6.305   5.887   4.414 -0.1473 -0.1876 -0.0776
22017SOL    HW167492   6.244   5.826   4.373 -0.1161  0.1292 -0.6132
22017SOL    HW267493   6.389   5.871   4.370  0.3209 -1.0496  1.0796
22018SOL     OW67494   6.825   5.243   5.197 -0.0850  0.1924  0.3351
22018SOL    HW167495   6.801   5.326   5.239 -0.5409  0.6388 -0.7773
22018SOL    HW267496   6.755   5.227   5.134  0.6725 -0.3690 -0.3870
22019SOL     OW67497   4.900   3.261   5.667  0.1303  0.1920  0.0508
22019SOL    HW167498   4.912   3.315   5.745  0.4713 -0.3061  0.3498
22019SOL    HW267499   4.829   3.303   5.619 -0.1130  0.4757  0.6521
22020SOL     OW67500   6.471   5.093  11.179 -0.3419  0.2003 -0.0608
22020SOL    HW167501   6.394   5.038  11.196  0.3205 -0.1233  2.1878
22020SOL    HW267502   6.493   5.130  11.264  2.0216  0.2653 -0.6360
22021SOL     OW67503   1.513   4.686   6.813  0.2297  0.6323  0.1325
22021SOL    HW167504   1.540   4.772   6.845 -1.9858  1.0517  1.0367
22021SOL    HW267505   1.463   4.648   6.885 -1.3469 -0.1617 -1.3033
22022SOL     OW67506   7.209   6.181   3.133  0.7457  0.4136 -0.4137
22022SOL    HW167507   7.279   6.206   3.194  1.5049  0.6830 -1.3803
22022SOL    HW267508   7.135   6.236   3.158  0.7369 -0.1259  0.8570
22023SOL     OW67509   1.175   4.086   1.672  0.4399 -0.2051 -0.2051
22023SOL    HW167510   1.095   4.120   1.713  1.7874  1.7534  0.9788
22023SOL    HW267511   1.219   4.164   1.638  2.2957 -1.1077  0.0072
22024SOL     OW67512   0.057   6.410   1.077  0.6060 -0.3292 -0.2405
22024SOL    HW167513  -0.016   6.419   1.016  1.0750 -0.5551 -0.8530
22024SOL    HW267514   0.082   6.318   1.071 -0.1403 -0.6474  1.2445
22025SOL     OW67515   6.639   5.378   0.284 -0.4515 -0.5737 -0.2371
22025SOL    HW167516   6.679   5.444   0.340  0.3037 -2.3919  1.4809
22025SOL    HW267517   6.565   5.344   0.335 -1.2392 -0.6177 -1.3640
22026SOL     OW67518   7.482   4.377   4.980 -0.2421 -0.2700 -0.6603
22026SOL    HW167519   7.415   4.446   4.982 -0.6410 -0.6579  0.3701
22026SOL    HW267520   7.543   4.405   4.912  0.7128  2.1813  1.0240
22027SOL     OW67521   4.932   3.775   0.514 -0.4134  0.1047  0.7502
22027SOL    HW167522   4.906   3.683   0.522  0.3686 -0.1030  0.9592
22027SOL    HW267523   4.933   3.791   0.419 -0.2773 -0.1820  0.7016
22028SOL     OW67524   0.590   2.375   5.846 -0.5084 -0.5290  0.3809
22028SOL    HW167525   0.557   2.422   5.770 -0.5736 -1.3357 -0.1056
22028SOL    HW267526   0.653   2.434   5.887  0.4166 -0.5456 -0.9706
22029SOL     OW67527   4.557   4.837  10.763  0.6895 -0.3257  0.0649
22029SOL    HW167528   4.609   4.797  10.833  2.5118 -0.3336 -1.2204
22029SOL    HW267529   4.542   4.927  10.792 -0.2634 -0.8586  1.3098
22030SOL     OW67530   0.689   7.666   2.877  0.6615 -0.0751  0.2453
22030SOL    HW167531   0.641   7.601   2.826  1.1726  0.8535 -1.5178
22030SOL    HW267532   0.636   7.746   2.868  0.6544  0.0713  1.3926
22031SOL     OW67533   7.272   7.418   9.403  0.4240 -0.1806 -0.2074
22031SOL    HW167534   7.188   7.459   9.423 -0.3581 -1.7550 -0.0679
22031SOL    HW267535   7.329   7.442   9.476  0.9514  3.0242 -1.5258
22032SOL     OW67536   0.984   4.153   6.798  0.0200 -0.0984 -0.7720
22032SOL    HW167537   0.942   4.109   6.724  0.1290  0.1953 -1.0095
22032SOL    HW267538   1.060   4.197   6.760  1.3377 -1.7340 -0.1182
22033SOL     OW67539   1.330   2.392   1.967 -0.1159  0.2962 -0.0977
22033SOL    HW167540   1.268   2.413   2.037 -1.0884 -2.1353 -0.1371
22033SOL    HW267541   1.292   2.316   1.923  1.6849  0.2683 -1.7303
22034SOL     OW67542   7.110   0.274   4.697 -0.0962  0.0640 -0.4814
22034SOL    HW167543   7.077   0.362   4.714 -1.7517 -0.4986 -0.5535
22034SOL    HW267544   7.200   0.286   4.670 -0.5602  1.8047 -1.3529
22035SOL     OW67545   7.777   6.396   5.510  0.3718  0.1650  0.5475
22035SOL    HW167546   7.823   6.473   5.478  2.0708 -0.9121  0.2043
22035SOL    HW267547   7.778   6.405   5.605 -1.5010  1.6449  0.4655
22036SOL     OW67548   1.966   2.528  10.791 -0.2353 -0.4027  0.6609
22036SOL    HW167549   1.956   2.498  10.701  0.8999 -0.1999  0.4446
22036SOL    HW267550   2.029   2.601  10.785  1.6768 -1.8631  1.8545
22037SOL     OW67551   1.043   7.137   1.351  0.4151  0.5085  0.5243
22037SOL    HW167552   1.063   7.217   1.399  0.9180  0.6795  0.0471
22037SOL    HW267553   1.112   7.132   1.284 -1.5307  1.5501 -1.7165
22038SOL     OW67554   1.260   0.601   4.561  0.4280 -0.4527 -0.3163
22038SOL    HW167555   1.233   0.657   4.489 -0.2276  0.2829  0.4815
22038SOL    HW267556   1.307   0.660   4.621  0.4211 -0.9217  0.1582
22039SOL     OW67557   3.039   3.895   5.755 -0.1244 -0.1323 -0.6438
22039SOL    HW167558   3.006   3.835   5.688 -0.1721  1.1784 -1.8170
22039SOL    HW267559   2.963   3.914   5.809 -0.7393  0.8485 -1.8046
22040SOL     OW67560   6.925   3.400   8.117  0.7140  0.5551  0.1120
22040SOL    HW167561   6.914   3.331   8.051  0.8919 -0.4766  1.1106
22040SOL    HW267562   6.912   3.482   8.069  0.4876 -0.1678 -1.1196
22041SOL     OW67563   0.157   4.143   1.733 -0.4029  0.2481 -0.0240
22041SOL    HW167564   0.229   4.102   1.782  0.2795 -0.0253 -1.2214
22041SOL    HW267565   0.087   4.151   1.797  0.6082  0.2998  1.1138
22042SOL     OW67566   5.481   6.235  11.288  0.3122  0.2306  0.5056
22042SOL    HW167567   5.428   6.219  11.366  0.3839  1.9049  0.9384
22042SOL    HW267568   5.451   6.320  11.255  0.9441 -0.0034 -0.7509
22043SOL     OW67569   5.810   4.532   5.754 -0.2604 -0.4984 -0.0430
22043SOL    HW167570   5.852   4.575   5.829 -1.5561  0.6443  0.0818
22043SOL    HW267571   5.877   4.473   5.719  1.3582  1.0610  0.2700
22044SOL     OW67572   0.568   7.852   4.087  0.1989 -0.2607 -0.0143
22044SOL    HW167573   0.653   7.853   4.131 -0.3308  0.7155  1.0729
22044SOL    HW267574   0.558   7.763   4.053  1.4183 -0.5273  0.3062
22045SOL     OW67575   3.308   2.809   0.844  0.3723 -0.3978  0.5047
22045SOL    HW167576   3.221   2.846   0.856 -0.1530 -0.7084 -1.8615
22045SOL    HW267577   3.313   2.738   0.908 -1.2288 -0.5420  0.5023
22046SOL     OW67578   2.249   1.456  11.893  0.8542 -0.2349 -0.3117
22046SOL    HW167579   2.244   1.381  11.833 -1.1380 -0.8881  0.5755
22046SOL    HW267580   2.225   1.531  11.839  0.2824 -0.6400 -0.6329
22047SOL     OW67581   6.382   6.726   7.617 -0.0172  0.0922 -0.7673
22047SOL    HW167582   6.412   6.679   7.539  1.7636 -0.9136  0.4451
22047SOL    HW267583   6.357   6.658   7.679 -0.5922  0.8405 -0.1476
22048SOL     OW67584   1.906   7.749  11.271 -0.4261  0.2509 -0.1440
22048SOL    HW167585   1.844   7.763  11.199 -0.4540  0.4145 -0.0871
22048SOL    HW267586   1.992   7.749  11.228 -0.5433 -1.6586 -0.4861
22049SOL     OW67587   0.990   6.064   5.181  0.0354  0.2543  0.3199
22049SOL    HW167588   0.921   6.060   5.247 -0.5848  5.2419  0.3675
22049SOL    HW267589   0.945   6.049   5.098 -0.6361  0.8381  0.5652
22050SOL     OW67590   2.701   0.165   0.048  0.2053  0.1198 -0.3489
22050SOL    HW167591   2.715   0.134   0.137  2.2236 -0.1647 -0.7189
22050SOL    HW267592   2.619   0.125   0.021  0.7621 -1.7271  0.5577
22051SOL     OW67593   4.296   5.519   9.259  0.5333 -0.4392 -0.3920
22051SOL    HW167594   4.317   5.479   9.343 -0.8970  0.2525  0.3081
22051SOL    HW267595   4.222   5.468   9.226  1.3199 -0.9511 -1.4350
22052SOL     OW67596   4.478   7.103   2.232 -0.3227  0.0804  0.8173
22052SOL    HW167597   4.446   7.028   2.182  1.2957 -0.2028  0.1367
22052SOL    HW267598   4.456   7.179   2.178  0.1578 -0.1105  0.3436
22053SOL     OW67599   3.642   4.424   0.444 -0.0028 -0.0605 -0.2037
22053SOL    HW167600   3.653   4.384   0.357  1.6594 -1.7490  0.7086
22053SOL    HW267601   3.571   4.375   0.484  0.1132 -0.1594 -0.1213
22054SOL     OW67602   5.445   4.728   0.568  0.9986 -0.5616 -0.0505
22054SOL    HW167603   5.491   4.806   0.599  3.4118 -0.7602 -2.6329
22054SOL    HW267604   5.367   4.762   0.524  0.2933  0.0686  1.6068
22055SOL     OW67605   4.109   5.484   5.397 -0.0906  0.8881  0.7513
22055SOL    HW167606   4.066   5.421   5.339  2.0388  0.1640 -0.1219
22055SOL    HW267607   4.086   5.569   5.361 -0.0174  0.4880 -0.2706
22056SOL     OW67608   1.383   2.935  12.069  0.6636 -0.0349  0.1811
22056SOL    HW167609   1.359   3.027  12.081 -0.5084 -0.0270 -1.8362
22056SOL    HW267610   1.419   2.931  11.980  1.0548 -1.4743  0.3773
22057SOL     OW67611   1.932   7.761   2.137  0.3095 -0.1841 -0.0748
22057SOL    HW167612   1.919   7.853   2.114 -1.7899 -0.3653  0.1912
22057SOL    HW267613   1.854   7.738   2.188  1.1639 -1.9065  0.5287
22058SOL     OW67614   0.351   7.445   2.541  0.8094 -0.4441  0.5697
22058SOL    HW167615   0.407   7.484   2.473  2.6216 -0.1163  2.1593
22058SOL    HW267616   0.290   7.516   2.565  0.0587 -0.6080 -0.7581
22059SOL     OW67617   4.494   0.952   2.263  0.1332  0.0701 -0.0267
22059SOL    HW167618   4.456   1.036   2.238 -1.1370 -0.1541  1.0499
22059SOL    HW267619   4.463   0.937   2.352 -1.9752 -2.7818 -1.0852
22060SOL     OW67620   5.965   7.425  10.101 -0.3269 -1.4691 -0.3661
22060SOL    HW167621   5.972   7.519  10.083 -0.5143 -0.9157  2.0520
22060SOL    HW267622   5.872   7.405  10.089 -1.2453 -0.2255  3.3313
22061SOL     OW67623   4.449   4.407   1.632  0.2611  0.0436  0.1656
22061SOL    HW167624   4.380   4.440   1.689 -0.1346  0.6577 -0.6500
22061SOL    HW267625   4.470   4.320   1.667 -2.3188 -1.0192 -0.7267
22062SOL     OW67626   6.427   2.326  12.200  0.4070  0.2363 -0.1284
22062SOL    HW167627   6.423   2.420  12.186 -2.5291  0.1776 -0.2315
22062SOL    HW267628   6.431   2.316  12.295  0.0543  0.4463 -0.0928
22063SOL     OW67629   5.908   1.961   6.262  0.0085  0.4786  0.2572
22063SOL    HW167630   5.846   1.893   6.287 -0.4908  0.4935 -0.8954
22063SOL    HW267631   5.905   1.963   6.167  1.8270  0.4509  0.1662
22064SOL     OW67632   2.564   4.730   1.363  0.0185  0.6496 -0.3181
22064SOL    HW167633   2.624   4.722   1.288 -0.5401  0.8812 -0.7993
22064SOL    HW267634   2.612   4.782   1.427  0.0785  1.4261 -0.9757
22065SOL     OW67635   6.494   0.223   7.796  0.4225  0.6835  0.0395
22065SOL    HW167636   6.446   0.142   7.777  0.9068  0.2528  0.6288
22065SOL    HW267637   6.435   0.293   7.765  0.6037  0.0811 -1.8088
22066SOL     OW67638   6.827   3.438   0.273 -0.7162  0.0161  0.0920
22066SOL    HW167639   6.751   3.390   0.240 -1.6930  1.8825 -0.5188
22066SOL    HW267640   6.808   3.453   0.365  0.3190 -2.0417  0.6902
22067SOL     OW67641   0.646   5.288   8.916 -0.6453 -0.1729  0.2187
22067SOL    HW167642   0.717   5.274   8.854 -0.5371 -1.1426  0.5381
22067SOL    HW267643   0.577   5.331   8.865  0.2289  0.9499 -0.0462
22068SOL     OW67644   5.844   6.205  10.998 -0.7650  0.2139 -0.0448
22068SOL    HW167645   5.763   6.154  11.004  0.3220 -1.4765  1.3782
22068SOL    HW267646   5.902   6.151  10.944 -0.1881  0.8423 -0.0647
22069SOL     OW67647   4.692   0.421   7.249  0.3410  0.4077 -0.6244
22069SOL    HW167648   4.748   0.417   7.327  0.9654 -1.5988 -1.1179
22069SOL    HW267649   4.608   0.384   7.277 -0.6836  2.9424 -0.0252
22070SOL     OW67650   0.936   2.364   9.463  0.2707 -0.0126 -0.2131
22070SOL    HW167651   0.965   2.359   9.554  1.4195  1.4365 -0.4624
22070SOL    HW267652   0.847   2.399   9.468 -0.3090 -1.5212  0.4156
22071SOL     OW67653   3.507   3.029   4.998 -0.3376  0.1363  0.6220
22071SOL    HW167654   3.577   3.025   4.933 -0.4818 -0.7074  0.5002
22071SOL    HW267655   3.431   3.062   4.949 -0.6495 -1.2200  0.1547
22072SOL     OW67656   3.734   2.050   7.366 -0.1369  0.3422 -0.6783
22072SOL    HW167657   3.813   2.028   7.316  0.2829  0.8237 -0.2403
22072SOL    HW267658   3.664   2.053   7.301  0.4300  1.1062 -1.2702
22073SOL     OW67659   2.692   5.030  10.376  0.3439 -0.2441 -0.4211
22073SOL    HW167660   2.744   4.994  10.303  3.1606 -1.9462  2.1986
22073SOL    HW267661   2.663   4.953  10.424 -1.0657  0.8589  0.5444
22074SOL     OW67662   4.013   1.199   5.463 -0.0422 -0.4645 -0.1644
22074SOL    HW167663   3.923   1.210   5.432 -0.1510  1.6506  0.7018
22074SOL    HW267664   4.057   1.279   5.437  0.7635 -0.1352  2.0202
22075SOL     OW67665   7.745   7.790  12.312 -0.1075 -0.3075  0.0237
22075SOL    HW167666   7.725   7.713  12.259  2.2796 -0.5065 -0.7301
22075SOL    HW267667   7.841   7.791  12.318 -0.0371  2.6306 -0.0495
22076SOL     OW67668   0.830   6.703   1.272  0.8847 -0.3085  0.3183
22076SOL    HW167669   0.848   6.622   1.320 -1.1342 -1.8992 -1.4178
22076SOL    HW267670   0.751   6.684   1.222  0.3167  2.7733 -0.1709
22077SOL     OW67671   5.347   6.442   8.755 -0.2474 -0.0509 -0.0801
22077SOL    HW167672   5.362   6.536   8.752  4.7329 -0.5759 -1.4788
22077SOL    HW267673   5.353   6.414   8.663 -0.5078 -1.8010  0.3951
22078SOL     OW67674   5.119   2.228   1.046 -0.2271 -0.2580 -0.4699
22078SOL    HW167675   5.037   2.195   1.008  0.3215  0.4240 -2.3780
22078SOL    HW267676   5.126   2.317   1.013  1.2380 -0.2624 -0.2389
22079SOL     OW67677   5.677   4.212   6.456  0.2415  1.0348  0.0289
22079SOL    HW167678   5.761   4.213   6.503  0.3286  1.3265 -0.1308
22079SOL    HW267679   5.614   4.180   6.521  0.5744  0.2561 -0.0225
22080SOL     OW67680   2.926   2.089   1.861 -0.2522  0.3209  0.0060
22080SOL    HW167681   2.960   2.179   1.861  0.9151 -0.0789  1.2912
22080SOL    HW267682   2.960   2.051   1.942  1.3630 -2.0768 -1.6646
22081SOL     OW67683   3.466   2.148   5.647  0.3860 -0.0239 -0.3829
22081SOL    HW167684   3.417   2.199   5.712 -1.0925 -1.4404 -0.3335
22081SOL    HW267685   3.515   2.213   5.597 -2.4533  1.6327 -1.2080
22082SOL     OW67686   4.803   6.807   9.434  0.1200 -0.6201  0.4171
22082SOL    HW167687   4.759   6.793   9.517  1.1701 -0.2394  1.0657
22082SOL    HW267688   4.833   6.898   9.438 -0.4202 -0.3765 -0.6785
22083SOL     OW67689   7.669   2.455  10.894 -0.1045 -0.0159 -0.5489
22083SOL    HW167690   7.630   2.368  10.905 -0.5424  0.2837  0.3929
22083SOL    HW267691   7.594   2.513  10.880 -0.1242  0.6551  1.8419
22084SOL     OW67692   0.016   5.654  11.908 -0.5867 -0.1568  0.3194
22084SOL    HW167693  -0.078   5.642  11.900 -0.5205 -0.5715  0.1678
22084SOL    HW267694   0.055   5.582  11.858 -0.1904 -0.6056  1.2482
22085SOL     OW67695   3.057   3.549  11.462  0.5815 -0.0426 -0.3793
22085SOL    HW167696   2.984   3.593  11.504 -1.4713 -3.2216 -0.2977
22085SOL    HW267697   3.062   3.588  11.374 -1.5835 -0.0759 -0.5692
22086SOL     OW67698   7.048   2.607   4.963 -0.0123 -0.5003 -0.1327
22086SOL    HW167699   6.959   2.633   4.988  0.2271 -0.3343  0.5715
22086SOL    HW267700   7.043   2.513   4.950 -0.5324 -0.3435 -1.1630
22087SOL     OW67701   0.431   3.051  12.149 -0.0948  0.0577  0.2537
22087SOL    HW167702   0.347   3.051  12.103 -0.5080 -1.1411  0.9632
22087SOL    HW267703   0.460   3.142  12.147 -0.7346  0.2567 -1.2115
22088SOL     OW67704   6.113   2.165   4.979  0.1800  0.0557  0.2313
22088SOL    HW167705   6.067   2.247   4.962 -1.5777 -1.1143 -1.0197
22088SOL    HW267706   6.188   2.190   5.033 -1.8486  2.1177  2.3541
22089SOL     OW67707   7.709   6.067   7.108  0.1052  0.1146  0.0063
22089SOL    HW167708   7.776   5.999   7.107  0.4614  0.4574  0.2739
22089SOL    HW267709   7.722   6.112   7.191  0.2606  0.8985 -0.4393
22090SOL     OW67710   5.575   3.965   3.944 -0.3497  0.0784 -0.4281
22090SOL    HW167711   5.574   3.999   4.033  0.7098 -2.0787  0.4724
22090SOL    HW267712   5.485   3.933   3.930 -0.8913  1.6157 -0.6801
22091SOL     OW67713   2.292   0.369   5.469 -0.2042 -0.0178  0.3329
22091SOL    HW167714   2.314   0.336   5.382 -0.9510 -0.6939  0.3891
22091SOL    HW267715   2.203   0.403   5.459 -0.6474 -0.9259  1.0374
22092SOL     OW67716   4.142   1.889   6.986  0.2018  0.5777  0.5092
22092SOL    HW167717   4.224   1.861   6.946  0.3408  0.5466  0.8109
22092SOL    HW267718   4.118   1.969   6.939  0.2864  0.4642  0.2701
22093SOL     OW67719   0.509   6.896   0.459 -0.1563 -0.6482 -0.2011
22093SOL    HW167720   0.514   6.804   0.487 -0.1514 -0.4061  0.5964
22093SOL    HW267721   0.482   6.891   0.367 -2.8469 -1.3751  0.5636
22094SOL     OW67722   7.560   2.521   4.074 -0.0173  0.1543  0.1216
22094SOL    HW167723   7.600   2.547   3.991 -0.2920 -2.1190 -0.7650
22094SOL    HW267724   7.466   2.520   4.057 -0.1900  1.0468  0.9018
22095SOL     OW67725   0.419   0.947   1.412  0.5990  0.1191  0.4699
22095SOL    HW167726   0.495   0.895   1.388  1.3251  1.5078 -0.3938
22095SOL    HW267727   0.454   1.019   1.464 -0.0891  0.8909 -0.1098
22096SOL     OW67728   4.083   6.242   2.749 -0.5006 -0.7953 -0.0602
22096SOL    HW167729   4.007   6.193   2.782 -1.7946  0.8099 -0.5409
22096SOL    HW267730   4.048   6.293   2.676  1.3113 -0.8423 -1.0081
22097SOL     OW67731   4.742   3.125   3.655  0.4256 -0.1077 -0.2729
22097SOL    HW167732   4.669   3.149   3.598 -0.5201 -1.5487  0.2816
22097SOL    HW267733   4.795   3.065   3.603 -1.0491 -2.3399  0.6309
22098SOL     OW67734   7.265   0.567   0.865 -0.0447  0.2311 -0.7667
22098SOL    HW167735   7.302   0.590   0.780 -1.4055 -0.1371 -1.4948
22098SOL    HW267736   7.245   0.473   0.858 -1.6762  0.5416 -0.6688
22099SOL     OW67737   2.133   1.024   9.073 -0.0209  0.4922  0.0062
22099SOL    HW167738   2.139   1.107   9.026  0.6435  0.2076 -0.4300
22099SOL    HW267739   2.218   0.982   9.058 -0.0755  0.0626  0.8444
22100SOL     OW67740   5.257   2.941   5.445  0.0968 -0.0174  0.3351
22100SOL    HW167741   5.306   2.978   5.372  0.8810 -0.7895  0.4409
22100SOL    HW267742   5.192   3.007   5.467 -1.1369 -0.3325 -1.9810
22101SOL     OW67743   5.289   5.303   3.416  0.3988  0.0505 -0.0442
22101SOL    HW167744   5.298   5.282   3.509  1.3886  1.1229  0.1284
22101SOL    HW267745   5.372   5.276   3.377  0.5910  0.9726 -0.3207
22102SOL     OW67746   5.521   4.155   9.768 -0.3559 -0.1537 -0.0520
22102SOL    HW167747   5.486   4.076   9.809  1.4705 -1.3918 -0.7525
22102SOL    HW267748   5.584   4.123   9.703  0.9410  1.8944  0.0962
22103SOL     OW67749   6.146   2.230   1.715 -0.0020 -0.2011 -0.8344
22103SOL    HW167750   6.117   2.250   1.626  0.7544  0.6215 -0.9006
22103SOL    HW267751   6.171   2.138   1.711 -0.0454 -0.1931 -1.4465
22104SOL     OW67752   6.505   1.994   8.288  0.0800 -0.1609  0.1470
22104SOL    HW167753   6.490   2.034   8.202  1.0433 -1.6312 -0.7451
22104SOL    HW267754   6.456   2.050   8.349  0.0400  1.3877 -1.2336
22105SOL     OW67755   5.902   7.638   7.392  0.7305 -0.0283  0.3744
22105SOL    HW167756   5.891   7.544   7.376 -1.9655  0.2729  0.0972
22105SOL    HW267757   5.817   7.676   7.373  1.3438  2.3082  1.9017
22106SOL     OW67758   3.177   6.247   5.345  0.5543  0.7549  0.5373
22106SOL    HW167759   3.160   6.339   5.323 -2.3041  0.6746  1.9916
22106SOL    HW267760   3.096   6.202   5.325  1.5385 -1.2711  0.9184
22107SOL     OW67761   2.660   5.610   3.683 -0.0726  0.2822  0.2883
22107SOL    HW167762   2.671   5.703   3.702 -1.0754  0.2097  1.3091
22107SOL    HW267763   2.640   5.570   3.767  1.3396 -1.0360  0.0436
22108SOL     OW67764   7.801   2.526   2.676  0.1868  0.4844 -0.0337
22108SOL    HW167765   7.866   2.464   2.708 -0.7218 -0.0832  0.8089
22108SOL    HW267766   7.848   2.584   2.617  2.0697  1.8168  2.5973
22109SOL     OW67767   6.725   7.502   4.614  0.5099  0.5143  0.0694
22109SOL    HW167768   6.720   7.416   4.572 -1.8791  1.1094 -1.0601
22109SOL    HW267769   6.808   7.539   4.583  0.4268 -0.4486 -1.4292
22110SOL     OW67770   6.065   6.722  10.989  0.4622 -0.4651 -0.2310
22110SOL    HW167771   6.092   6.799  10.939 -1.6368  0.4867  0.0195
22110SOL    HW267772   6.072   6.749  11.081  1.7889 -1.3350 -0.0464
22111SOL     OW67773   1.286   4.139   2.715  0.0307 -0.3344 -0.0784
22111SOL    HW167774   1.346   4.088   2.661 -1.1976 -1.4177 -0.4793
22111SOL    HW267775   1.245   4.200   2.653  0.0182 -0.2608  0.0030
22112SOL     OW67776   1.612   3.642   9.714  0.0274 -0.2925 -0.2101
22112SOL    HW167777   1.605   3.656   9.809 -1.7469 -0.8279 -0.2228
22112SOL    HW267778   1.564   3.561   9.698  0.3989 -0.2631 -1.5596
22113SOL     OW67779   2.162   1.014   2.436  0.2810  0.0572  0.4129
22113SOL    HW167780   2.166   0.987   2.344  0.4524  0.8856  0.1690
22113SOL    HW267781   2.099   1.085   2.437  1.5669  1.2391  0.6190
22114SOL     OW67782   0.969   7.098   0.370 -0.5254 -0.1976 -0.6085
22114SOL    HW167783   0.979   7.193   0.364 -1.6509 -0.0701 -0.6454
22114SOL    HW267784   0.893   7.086   0.427 -1.0711 -1.0527 -1.4892
22115SOL     OW67785   5.281   4.749  11.915  0.9677 -0.2887  0.0521
22115SOL    HW167786   5.236   4.686  11.971  0.3974  1.5143  1.7772
22115SOL    HW267787   5.215   4.817  11.897  1.4572 -0.2850 -1.9950
22116SOL     OW67788   0.716   2.291   8.044 -0.1302  0.1481 -0.4272
22116SOL    HW167789   0.698   2.375   8.084 -0.8704 -0.3567  0.3185
22116SOL    HW267790   0.639   2.272   7.991  0.8015  0.7733 -2.0789
22117SOL     OW67791   6.299   1.074   6.163  0.0319  0.2202 -0.1961
22117SOL    HW167792   6.377   1.114   6.200  0.2077 -0.4278  0.1450
22117SOL    HW267793   6.329   0.989   6.129 -0.2345  0.5607 -1.3240
22118SOL     OW67794   3.198   0.641   6.247 -0.0583 -0.1678  0.3807
22118SOL    HW167795   3.267   0.580   6.224  0.7979  1.1537 -0.7620
22118SOL    HW267796   3.190   0.635   6.342  1.8360 -0.1625  0.5767
22119SOL     OW67797   4.246   1.486   2.813  0.3881 -0.4896  0.1320
22119SOL    HW167798   4.154   1.478   2.838 -0.6917  0.4969 -2.9890
22119SOL    HW267799   4.266   1.404   2.768  1.7313 -1.5044  2.3884
22120SOL     OW67800   1.365   3.383   1.669 -0.2154 -0.0265  0.3074
22120SOL    HW167801   1.423   3.377   1.593 -1.4053  1.8873 -0.8177
22120SOL    HW267802   1.409   3.446   1.727 -1.6012  2.4139 -1.1025
22121SOL     OW67803   6.562   7.835   9.639  0.1150 -0.5958 -0.1696
22121SOL    HW167804   6.555   7.750   9.596  1.7110 -0.7730 -0.1537
22121SOL    HW267805   6.568   7.814   9.732 -2.8679 -0.2383  0.1964
22122SOL     OW67806   7.092   4.064   2.660  0.6951 -0.0572 -0.1045
22122SOL    HW167807   7.088   4.024   2.573 -1.6277 -0.0705 -0.0490
22122SOL    HW267808   7.001   4.070   2.687  1.1253  2.9172  0.9929
22123SOL     OW67809   6.330   0.573   8.876 -0.7199  0.3882 -0.0272
22123SOL    HW167810   6.356   0.496   8.928  0.1247  0.0984 -0.8558
22123SOL    HW267811   6.360   0.648   8.927  2.3278  0.0663 -1.1761
22124SOL     OW67812   4.471   0.037   8.311  0.4979  0.0269 -0.7174
22124SOL    HW167813   4.433   0.068   8.229  0.5446  1.2728 -0.2845
22124SOL    HW267814   4.504   0.116   8.353 -1.0317 -0.3431  1.2960
22125SOL     OW67815   1.259   2.284  10.531 -0.2840  0.0702  0.3678
22125SOL    HW167816   1.179   2.278  10.584 -0.8508  0.8246 -0.3818
22125SOL    HW267817   1.258   2.204  10.478 -0.4070 -0.0436  0.5386
22126SOL     OW67818   5.107   3.706   6.563  0.5856  0.3546 -0.5561
22126SOL    HW167819   5.029   3.721   6.615 -0.4540 -0.8662 -1.6877
22126SOL    HW267820   5.180   3.727   6.622 -0.5338 -0.4496  1.1987
22127SOL     OW67821   3.028   2.292   7.187 -0.2508 -0.4041  0.1899
22127SOL    HW167822   2.995   2.309   7.275 -0.8544  1.1960 -0.3080
22127SOL    HW267823   3.039   2.197   7.183 -0.3570 -0.5228  1.9261
22128SOL     OW67824   3.401   6.497   8.432 -0.2841 -0.6084  0.1598
22128SOL    HW167825   3.316   6.536   8.452 -0.6732 -1.6367  0.5776
22128SOL    HW267826   3.452   6.509   8.512  0.1116  0.3530 -0.2218
22129SOL     OW67827   0.357   0.676   9.565  0.4509 -0.1811 -0.0618
22129SOL    HW167828   0.416   0.662   9.490  1.3308  2.3382  0.0603
22129SOL    HW267829   0.406   0.646   9.641 -0.4061 -2.6539 -0.3977
22130SOL     OW67830   6.894   4.483   2.429 -0.1284  0.0193 -0.0582
22130SOL    HW167831   6.833   4.441   2.369  0.4002  1.3179 -1.5683
22130SOL    HW267832   6.888   4.576   2.409 -1.8421  0.9172  3.6968
22131SOL     OW67833   4.250   4.700   1.044 -0.3602 -0.3238 -0.3426
22131SOL    HW167834   4.322   4.761   1.030 -0.0131 -0.9656 -1.5227
22131SOL    HW267835   4.227   4.670   0.956 -1.6480 -0.6202  0.0681
22132SOL     OW67836   1.690   7.700   6.534 -0.2384  0.3232  0.4673
22132SOL    HW167837   1.659   7.759   6.602  1.0091 -0.2197  1.5617
22132SOL    HW267838   1.778   7.674   6.563  0.8102  0.9415 -1.9051
22133SOL     OW67839   5.243   4.389   3.091 -0.1513  0.1269  0.4030
22133SOL    HW167840   5.154   4.384   3.056 -0.9676  1.7626  2.0353
22133SOL    HW267841   5.271   4.479   3.073  0.9263 -0.1885  0.4689
22134SOL     OW67842   2.246   4.511   0.264 -0.4010 -0.2459  0.1015
22134SOL    HW167843   2.219   4.484   0.177 -1.2121  1.2548 -0.1540
22134SOL    HW267844   2.204   4.596   0.277  0.0468 -0.2390  1.7894
22135SOL     OW67845   3.742   2.681   8.277  0.4532 -0.0658  0.0146
22135SOL    HW167846   3.716   2.623   8.206 -0.3936  1.0841 -0.6525
22135SOL    HW267847   3.682   2.659   8.349  0.5654 -0.4540 -0.0096
22136SOL     OW67848   6.035   4.531   2.580 -0.0002  0.3840 -0.0664
22136SOL    HW167849   5.992   4.543   2.495  0.1420  1.8766  0.0444
22136SOL    HW267850   5.969   4.557   2.644  0.5064  1.1124  0.1789
22137SOL     OW67851   4.905   1.771   7.395 -0.4470 -0.0429  0.3876
22137SOL    HW167852   4.993   1.799   7.372 -0.7548  0.1502 -0.5735
22137SOL    HW267853   4.855   1.778   7.314 -1.2831 -0.4115  0.8577
22138SOL     OW67854   2.130   1.212   8.749  0.0450 -0.4640 -0.4701
22138SOL    HW167855   2.225   1.204   8.749 -0.0442 -1.7730 -0.9814
22138SOL    HW267856   2.112   1.281   8.812  1.4659  1.8464 -2.4361
22139SOL     OW67857   2.233   2.984  12.147  0.1775  0.0421  0.3535
22139SOL    HW167858   2.285   3.052  12.105  0.4826 -0.9179 -0.8907
22139SOL    HW267859   2.281   2.903  12.130 -0.2117 -0.5101  1.7348
22140SOL     OW67860   7.250   1.268   0.983  0.3261  0.2102  0.5862
22140SOL    HW167861   7.163   1.228   0.983  1.2085 -1.8244  0.4014
22140SOL    HW267862   7.291   1.237   0.902  0.8291  2.1226  0.0619
22141SOL     OW67863   7.012   4.925  11.265 -0.1129 -0.1520  0.1050
22141SOL    HW167864   7.027   4.863  11.337  1.4035 -0.6037 -0.5504
22141SOL    HW267865   6.936   4.976  11.292  0.5134 -0.1926  2.1073
22142SOL     OW67866   4.991   2.827  10.190  0.0548  0.4213  0.2966
22142SOL    HW167867   5.053   2.834  10.117 -1.4370  0.3147 -1.0158
22142SOL    HW267868   4.941   2.747  10.172 -1.6673  1.4413  0.3476
22143SOL     OW67869   1.370   0.366   4.476  0.6055 -0.3136  0.2030
22143SOL    HW167870   1.337   0.455   4.475 -1.3137 -0.9658  1.4526
22143SOL    HW267871   1.358   0.336   4.566  1.5095 -1.7424 -0.1149
22144SOL     OW67872   2.075   3.346   9.604  0.0691 -0.4855 -0.3203
22144SOL    HW167873   2.116   3.312   9.524 -0.5497  0.3291 -0.9960
22144SOL    HW267874   2.047   3.268   9.651 -1.2954 -0.9604 -1.8302
22145SOL     OW67875   1.441   2.165   0.082 -0.3560 -0.0110  0.1839
22145SOL    HW167876   1.516   2.204   0.126 -0.0231 -1.0943  0.6276
22145SOL    HW267877   1.370   2.171   0.145 -0.1968 -0.4623  0.4159
22146SOL     OW67878   3.840   6.461   7.253  0.2449 -0.0929  0.1108
22146SOL    HW167879   3.809   6.485   7.340  1.0623  0.1482  0.3434
22146SOL    HW267880   3.764   6.474   7.196  0.1526  1.3275  0.5202
22147SOL     OW67881   7.218   1.444  10.158 -0.2801 -0.0169 -0.0303
22147SOL    HW167882   7.212   1.373  10.222 -1.5720 -0.3678 -0.5252
22147SOL    HW267883   7.310   1.443  10.130 -0.0063 -0.7080  0.8376
22148SOL     OW67884   6.670   2.158   0.789  0.7710 -0.5592  0.6655
22148SOL    HW167885   6.722   2.232   0.821  0.6153 -0.7121  1.2805
22148SOL    HW267886   6.696   2.084   0.844  2.6051 -1.5576 -1.3878
22149SOL     OW67887   1.089   5.653   4.845 -0.0289  0.1173 -0.0183
22149SOL    HW167888   1.120   5.594   4.914 -1.5792 -0.7948 -0.0527
22149SOL    HW267889   1.087   5.599   4.766  1.4221  1.0675 -0.7476
22150SOL     OW67890   5.295   7.583   0.997 -0.1188 -0.3959  0.0211
22150SOL    HW167891   5.274   7.553   0.908  0.9661 -1.0868 -0.0168
22150SOL    HW267892   5.284   7.505   1.051  0.1354 -0.2113  0.3408
22151SOL     OW67893   2.268   2.181   0.954  0.5308 -0.0023 -0.1020
22151SOL    HW167894   2.176   2.159   0.968  0.2173  0.9126 -0.6176
22151SOL    HW267895   2.275   2.196   0.860  0.9661  0.9772  0.0736
22152SOL     OW67896   3.310   6.139   0.108  0.0278  0.2482 -0.2761
22152SOL    HW167897   3.395   6.183   0.096 -0.3257  1.5062  1.4798
22152SOL    HW267898   3.327   6.072   0.174 -0.4595  0.9418  0.5735
22153SOL     OW67899   7.262   3.161  11.057  0.1418  0.2034 -0.0134
22153SOL    HW167900   7.326   3.205  11.113 -0.0985 -1.0875  1.3539
22153SOL    HW267901   7.220   3.097  11.115 -0.7291 -0.6088 -1.4789
22154SOL     OW67902   1.330   7.776   6.246 -0.1497 -0.0557  0.1117
22154SOL    HW167903   1.424   7.770   6.230 -0.4168 -0.7218 -1.3734
22154SOL    HW267904   1.305   7.689   6.278 -0.1801  0.3026  1.1078
22155SOL     OW67905   7.808   5.958  11.759  0.2121  0.0025 -0.7818
22155SOL    HW167906   7.749   5.903  11.708  0.1527 -1.3670  0.6569
22155SOL    HW267907   7.789   5.935  11.850  1.0254  1.5836 -0.1696
22156SOL     OW67908   5.247   4.789   7.088  0.4663 -0.3761  0.3892
22156SOL    HW167909   5.234   4.791   7.182 -0.2196 -0.0889  0.2937
22156SOL    HW267910   5.159   4.780   7.051  0.6878 -0.0803 -0.2355
22157SOL     OW67911   0.915   3.149   3.417  0.0902  0.9817  0.9645
22157SOL    HW167912   0.960   3.091   3.355 -1.5427 -1.4778  1.9360
22157SOL    HW267913   0.858   3.202   3.361  1.1003  1.1906  0.0941
22158SOL     OW67914   1.970   5.677   5.704  0.1317  1.4735 -0.1251
22158SOL    HW167915   1.883   5.641   5.721  0.9624  0.4874  2.8496
22158SOL    HW267916   1.990   5.729   5.782  2.7548  0.3829  0.0518
22159SOL     OW67917   7.197   7.241   4.167  0.4984 -0.6820 -0.0150
22159SOL    HW167918   7.279   7.195   4.184  0.6668 -0.8838 -1.2865
22159SOL    HW267919   7.135   7.202   4.229  1.4129 -0.3213  1.1576
22160SOL     OW67920   4.544   5.954   1.512  0.3190  0.0560 -0.0117
22160SOL    HW167921   4.538   5.963   1.607  0.7959  0.1309  0.0148
22160SOL    HW267922   4.581   6.037   1.482  1.9812 -0.6656 -0.0599
22161SOL     OW67923   4.671   3.716   1.590 -0.4883 -0.1914  0.2731
22161SOL    HW167924   4.715   3.715   1.505  1.0555  2.6224  0.9217
22161SOL    HW267925   4.736   3.681   1.651  0.4777  2.6019  1.0002
22162SOL     OW67926   6.364   5.904   3.073  0.6401 -0.2951 -0.2542
22162SOL    HW167927   6.447   5.899   3.027 -0.0119 -0.4839 -1.4305
22162SOL    HW267928   6.301   5.933   3.008  0.1676  2.0383  1.1349
22163SOL     OW67929   6.246   0.660   2.032  0.5476 -0.0673  0.0269
22163SOL    HW167930   6.265   0.658   2.125  1.0726  0.4849 -0.0591
22163SOL    HW267931   6.241   0.753   2.010  0.7924 -0.1847 -0.5593
22164SOL     OW67932   3.924   1.501   1.816 -0.6221 -0.1421  0.0935
22164SOL    HW167933   3.881   1.536   1.738 -0.3243 -0.0834 -0.0471
22164SOL    HW267934   3.921   1.406   1.804  1.0770 -0.1089 -0.9158
22165SOL     OW67935   2.074   6.767   6.766  0.1298  0.3454 -0.1955
22165SOL    HW167936   2.122   6.770   6.683  1.2033  0.0244  0.3974
22165SOL    HW267937   2.114   6.695   6.814 -0.9859  0.0426  0.3118
22166SOL     OW67938   0.349   6.197   5.540 -0.7463  0.0286  0.2289
22166SOL    HW167939   0.290   6.223   5.469 -1.1087 -2.1563 -0.3456
22166SOL    HW267940   0.350   6.101   5.536  0.8246 -0.0695  1.8976
22167SOL     OW67941   1.602   1.838   4.304  0.0733  0.0243  0.3231
22167SOL    HW167942   1.628   1.799   4.387 -0.8277 -2.1801 -0.3674
22167SOL    HW267943   1.567   1.765   4.252 -0.9844  1.6218 -1.3577
22168SOL     OW67944   3.073   7.064   7.189  0.4801 -0.0457  0.0503
22168SOL    HW167945   2.999   7.104   7.144  1.2072  1.3203  0.0213
22168SOL    HW267946   3.100   6.992   7.132 -1.5899 -1.4117  0.6763
22169SOL     OW67947   7.249   0.801   6.388 -0.7182  0.2686 -1.1735
22169SOL    HW167948   7.193   0.775   6.462 -1.3545  1.7419 -1.0944
22169SOL    HW267949   7.265   0.720   6.340 -2.1211 -0.3545 -0.6451
22170SOL     OW67950   0.748   3.726   0.381  0.3194 -0.1176  0.3951
22170SOL    HW167951   0.776   3.810   0.418 -0.5046  1.1593 -1.7101
22170SOL    HW267952   0.710   3.678   0.455 -0.9689  2.1550  1.2956
22171SOL     OW67953   5.212   5.766   4.209  0.0137 -0.2888 -0.0952
22171SOL    HW167954   5.220   5.672   4.224 -2.4487 -0.4157  0.8700
22171SOL    HW267955   5.256   5.806   4.284  1.0744 -0.6332 -0.5134
22172SOL     OW67956   1.924   0.422   5.289  0.0830 -0.6159  0.3302
22172SOL    HW167957   1.956   0.467   5.210 -1.0765 -1.6687 -0.7819
22172SOL    HW267958   1.955   0.332   5.280 -1.3491 -1.1225  0.2945
22173SOL     OW67959   4.590   0.590   8.869 -0.3389 -0.5187 -0.1239
22173SOL    HW167960   4.650   0.522   8.899  1.6923  0.9608 -0.6305
22173SOL    HW267961   4.628   0.622   8.788  0.6110  3.3722  1.6443
22174SOL     OW67962   5.617   1.044   8.264  0.2578  1.2592  0.5985
22174SOL    HW167963   5.522   1.052   8.275  0.0259 -0.1497 -0.1729
22174SOL    HW267964   5.652   1.067   8.350 -0.8472  0.8547  1.1826
22175SOL     OW67965   1.504   3.820   3.374  0.0401  0.1024 -0.2236
22175SOL    HW167966   1.506   3.880   3.449 -1.4685  1.4094 -1.1888
22175SOL    HW267967   1.417   3.781   3.377 -1.1498  2.3005 -2.8572
22176SOL     OW67968   3.537   3.948   0.943  0.6566 -0.1331  0.2942
22176SOL    HW167969   3.549   3.888   0.869  2.0629  0.7260 -0.2180
22176SOL    HW267970   3.625   3.979   0.963  0.2882 -0.2492  2.2844
22177SOL     OW67971   6.226   1.396   9.642 -0.0643  0.3657  0.4744
22177SOL    HW167972   6.265   1.483   9.646 -0.8105  0.8339 -1.2058
22177SOL    HW267973   6.226   1.374   9.548  0.0482 -1.4180  0.8568
22178SOL     OW67974   3.093   1.401  10.603  0.0008 -0.4273 -0.5017
22178SOL    HW167975   3.160   1.468  10.613  0.4831 -0.6755 -1.7872
22178SOL    HW267976   3.013   1.450  10.581  0.2165 -0.2318 -0.8637
22179SOL     OW67977   2.027   4.104   4.307 -0.0656  0.7548  0.1916
22179SOL    HW167978   2.081   4.168   4.353 -0.4614  0.9714  0.3604
22179SOL    HW267979   1.953   4.155   4.274 -0.4924  0.3498  0.5092
22180SOL     OW67980   4.243   5.824   0.393 -0.0536 -0.0825 -0.0218
22180SOL    HW167981   4.263   5.909   0.353  0.8952  0.1156  0.8307
22180SOL    HW267982   4.151   5.830   0.417 -0.5000 -0.0108 -1.6676
22181SOL     OW67983   7.930   1.238  11.581  0.1443 -0.4187 -0.4804
22181SOL    HW167984   7.841   1.261  11.608  0.3548 -1.5601  1.3599
22181SOL    HW267985   7.976   1.220  11.662  1.9514 -0.3151 -1.4287
22182SOL     OW67986   7.587   0.936   7.277  0.3354 -0.0320  0.2981
22182SOL    HW167987   7.590   0.885   7.358  1.9714  2.0236  1.6406
22182SOL    HW267988   7.501   0.978   7.279  0.2993 -0.1194  0.8716
22183SOL     OW67989   0.972   1.118   6.606  0.3132 -0.7925 -0.2506
22183SOL    HW167990   0.983   1.092   6.698 -0.3425 -0.0585  0.0430
22183SOL    HW267991   1.061   1.133   6.574  0.4711  0.3974  0.6990
22184SOL     OW67992   1.958   3.454   8.671 -0.1591 -0.4458 -0.3312
22184SOL    HW167993   2.047   3.491   8.676  0.3720 -1.6569 -0.5556
22184SOL    HW267994   1.903   3.518   8.716  0.9445 -0.0255  0.4555
22185SOL     OW67995   3.584   5.196   2.157 -0.0267  0.0037 -0.6101
22185SOL    HW167996   3.529   5.142   2.101 -0.2054 -1.7667  1.1659
22185SOL    HW267997   3.665   5.207   2.108  0.1173 -2.1356 -0.9399
22186SOL     OW67998   0.942   1.767   4.027 -0.4361  0.2548 -0.1051
22186SOL    HW167999   0.946   1.698   3.960  1.8017 -0.4758  0.7090
22186SOL    HW268000   1.029   1.807   4.026 -0.8737  1.3202  1.2725
22187SOL     OW68001   7.554   4.100   0.761 -0.5719  0.1254  0.1804
22187SOL    HW168002   7.644   4.125   0.780 -0.5586  0.2780 -0.0725
22187SOL    HW268003   7.553   4.005   0.767 -0.6365  0.1814  1.2309
22188SOL     OW68004   4.852   6.610   7.007 -0.6407 -0.0931  0.2500
22188SOL    HW168005   4.935   6.568   6.983 -1.2487 -2.0196  1.2506
22188SOL    HW268006   4.820   6.648   6.925 -0.5513 -2.6119 -1.0682
22189SOL     OW68007   0.151   4.892   2.366 -0.8162 -0.5082  0.6602
22189SOL    HW168008   0.187   4.838   2.436 -0.4605 -0.6323  0.3845
22189SOL    HW268009   0.067   4.852   2.344  0.1959 -1.9805 -0.7185
22190SOL     OW68010   7.781   6.627  10.066  0.0052  0.5178  0.5695
22190SOL    HW168011   7.827   6.700  10.024  0.7525 -0.0765  0.3481
22190SOL    HW268012   7.850   6.574  10.104 -0.4994 -0.3720  0.2644
22191SOL     OW68013   5.416   3.040  11.580 -0.2940 -0.1730 -0.7926
22191SOL    HW168014   5.458   2.955  11.593 -0.7274 -0.0957  1.3714
22191SOL    HW268015   5.328   3.029  11.616 -0.8898  0.7653 -1.8839
22192SOL     OW68016   2.014   6.516   8.480  0.1338 -0.8847  0.6066
22192SOL    HW168017   1.995   6.605   8.448 -1.5771 -1.7627 -1.0647
22192SOL    HW268018   2.102   6.498   8.447  0.8515  0.4721  1.6952
22193SOL     OW68019   1.238   2.616   3.387  0.2101  0.3360 -0.5461
22193SOL    HW168020   1.279   2.670   3.319  0.7138  3.2097  1.8619
22193SOL    HW268021   1.301   2.546   3.402  1.9783  1.8868 -0.3695
22194SOL     OW68022   5.685   0.298  10.093 -0.4143  0.2513 -0.7922
22194SOL    HW168023   5.677   0.212  10.050  0.9430 -0.0921 -0.4090
22194SOL    HW268024   5.670   0.279  10.186  0.0744  0.3780 -0.6817
22195SOL     OW68025   6.276   4.505   9.675 -0.4479 -0.2625 -0.3476
22195SOL    HW168026   6.270   4.414   9.645  0.2693 -0.0245 -1.2683
22195SOL    HW268027   6.286   4.555   9.594  1.3145  0.4339  0.2513
22196SOL     OW68028   6.755   2.892   4.187  0.5993  0.3117 -0.3933
22196SOL    HW168029   6.790   2.981   4.187 -2.1648  1.4991 -0.0248
22196SOL    HW268030   6.666   2.901   4.221  0.9299 -2.9395  1.7523
22197SOL     OW68031   2.078   3.476  11.866  0.1157  0.0843 -0.3663
22197SOL    HW168032   1.998   3.497  11.818 -0.5704 -1.6081 -0.0149
22197SOL    HW268033   2.115   3.561  11.889 -0.3730  0.9240 -2.4873
22198SOL     OW68034   4.270   0.484   3.972  0.5075  0.0268 -0.0986
22198SOL    HW168035   4.277   0.509   4.064  1.0023 -0.6314  0.0489
22198SOL    HW268036   4.186   0.519   3.944 -0.9913 -2.2012  1.3729
22199SOL     OW68037   1.828   4.455   7.448  0.2165 -0.3097  0.4295
22199SOL    HW168038   1.829   4.550   7.451 -0.1678 -0.2423 -0.8622
22199SOL    HW268039   1.906   4.431   7.398 -0.4139 -0.5899 -0.4492
22200SOL     OW68040   2.917   4.239   0.030 -0.3629 -0.2547  0.0798
22200SOL    HW168041   2.909   4.178   0.103  0.8486 -0.5271  0.0145
22200SOL    HW268042   2.975   4.194  -0.032 -0.4295  0.4598 -0.5095
22201SOL     OW68043   7.673   7.235   5.429  0.4254 -0.5272 -0.0733
22201SOL    HW168044   7.724   7.160   5.458 -0.7371 -0.9171  1.0792
22201SOL    HW268045   7.737   7.306   5.421  0.9941 -0.5345  2.9891
22202SOL     OW68046   5.643   7.867   5.547 -0.1375  0.2298 -0.0040
22202SOL    HW168047   5.659   7.782   5.586 -1.7553  0.5557  1.4740
22202SOL    HW268048   5.690   7.864   5.464  0.3829 -1.8448  0.3085
22203SOL     OW68049   4.651   6.379   2.370  0.0053 -0.3415 -0.5305
22203SOL    HW168050   4.596   6.456   2.385 -1.9602 -1.2232 -2.7052
22203SOL    HW268051   4.695   6.397   2.287 -0.4789 -1.5359 -1.0611
22204SOL     OW68052   7.469   0.605   4.811 -0.2499  0.0614 -0.1993
22204SOL    HW168053   7.512   0.528   4.774 -2.8613 -0.7415 -1.7673
22204SOL    HW268054   7.410   0.569   4.878 -0.3275  0.8714  0.1741
22205SOL     OW68055   7.723   6.177   8.172  0.1828 -0.0343 -0.8208
22205SOL    HW168056   7.758   6.100   8.216 -0.6097 -0.5149 -1.0196
22205SOL    HW268057   7.783   6.248   8.196 -0.1309 -0.3143  0.9188
22206SOL     OW68058   1.324   4.520   3.807 -0.1020  0.0757 -0.5343
22206SOL    HW168059   1.337   4.601   3.856 -2.3425 -1.1868  2.4451
22206SOL    HW268060   1.296   4.549   3.720  1.5556  2.4295 -0.3692
22207SOL     OW68061   5.820   5.759   7.457 -0.1093  0.8546 -0.1098
22207SOL    HW168062   5.765   5.818   7.406  2.0245  2.3419 -0.8567
22207SOL    HW268063   5.759   5.699   7.500 -2.1379  0.9522 -2.6281
22208SOL     OW68064   6.444   7.565   9.545 -0.1298 -0.0398  0.0869
22208SOL    HW168065   6.448   7.571   9.449 -0.3394  0.7010  0.1162
22208SOL    HW268066   6.374   7.503   9.562 -0.1189 -0.1470 -0.2411
22209SOL     OW68067   5.933   0.499  11.496 -0.0570  0.1999 -0.1254
22209SOL    HW168068   5.886   0.543  11.567  0.0120 -0.9442  0.6611
22209SOL    HW268069   6.023   0.490  11.529 -0.4177 -1.8838  0.4073
22210SOL     OW68070   4.768   5.160   4.020  0.2635  0.4184 -0.2402
22210SOL    HW168071   4.836   5.098   3.993  1.4513  0.9210  1.5061
22210SOL    HW268072   4.725   5.118   4.094  0.7217  1.4302  0.6167
22211SOL     OW68073   1.206   1.386  12.156  0.3568  0.6470 -0.2718
22211SOL    HW168074   1.287   1.347  12.189 -0.5240 -1.6980 -0.6190
22211SOL    HW268075   1.166   1.427  12.233  0.1702 -1.3903  0.7970
22212SOL     OW68076   5.121   5.662   7.341  0.0926 -0.3893  0.0481
22212SOL    HW168077   5.160   5.704   7.265  0.2353 -0.4946  0.0620
22212SOL    HW268078   5.089   5.577   7.309 -1.4650  0.3068 -0.3027
22213SOL     OW68079   3.215   3.672   7.388  0.0198  0.4003 -0.3128
22213SOL    HW168080   3.209   3.588   7.435  2.7506 -1.0331 -2.2798
22213SOL    HW268081   3.201   3.738   7.456  2.1024 -1.5807  2.2663
22214SOL     OW68082   0.021   3.521   9.531  0.3853 -0.4522 -0.1537
22214SOL    HW168083   0.095   3.460   9.537  2.2293  1.5867 -0.8977
22214SOL    HW268084   0.029   3.560   9.444 -2.9122 -1.6593 -1.1904
22215SOL     OW68085   6.155   3.758   4.350  0.1473 -0.3476  0.9318
22215SOL    HW168086   6.093   3.819   4.310  0.8319  0.5913  1.2580
22215SOL    HW268087   6.202   3.718   4.277  0.5931  0.4987  0.7410
22216SOL     OW68088   7.972   2.213   9.377 -0.0648 -0.2139  0.3126
22216SOL    HW168089   7.922   2.205   9.296  0.3446  1.8402 -0.2081
22216SOL    HW268090   8.033   2.139   9.376 -0.3099 -0.4101 -1.0937
22217SOL     OW68091   5.949   6.220   8.054  0.1321 -0.1788 -0.8831
22217SOL    HW168092   5.856   6.239   8.056  0.4759  1.7477 -0.9325
22217SOL    HW268093   5.955   6.125   8.047 -1.8050 -0.3701 -0.3787
22218SOL     OW68094   0.554   1.439   7.035  0.3076  0.1940  0.4206
22218SOL    HW168095   0.619   1.509   7.039  1.3045 -0.6986  0.3415
22218SOL    HW268096   0.491   1.468   6.969  1.8567  0.1051 -1.1788
22219SOL     OW68097   6.231   7.682   2.658  0.0077  0.1617 -0.4617
22219SOL    HW168098   6.149   7.719   2.627 -0.5821 -0.5381  0.2247
22219SOL    HW268099   6.243   7.603   2.605  1.3726  1.3755 -2.0777
22220SOL     OW68100   5.217   4.810  11.493  0.2847  0.0826 -0.1097
22220SOL    HW168101   5.215   4.800  11.398  0.8009  0.5738 -0.1825
22220SOL    HW268102   5.301   4.773  11.519 -0.1020 -0.5771  0.2318
22221SOL     OW68103   2.235   4.369   8.172 -0.7128  0.0320 -0.3232
22221SOL    HW168104   2.311   4.318   8.201  0.4470  1.6816 -0.3393
22221SOL    HW268105   2.267   4.420   8.099 -1.6552  1.2632  0.0953
22222SOL     OW68106   0.842   4.828   8.454  0.4094  0.2024 -0.0236
22222SOL    HW168107   0.884   4.814   8.539  1.6049 -0.0209 -0.6197
22222SOL    HW268108   0.852   4.745   8.408 -0.3439  0.2816 -0.3333
22223SOL     OW68109   4.357   7.598   0.102 -0.3596  0.0238 -0.3698
22223SOL    HW168110   4.351   7.537   0.030 -0.7696  1.0047 -1.1930
22223SOL    HW268111   4.321   7.680   0.068 -1.4946  0.2552  1.2404
22224SOL     OW68112   6.283   4.893   4.845 -0.2372 -0.3606 -0.0282
22224SOL    HW168113   6.235   4.832   4.789 -1.0141 -0.9498  1.2253
22224SOL    HW268114   6.215   4.950   4.881  0.5063  1.5511 -1.4720
22225SOL     OW68115   0.877   7.346   9.018 -0.0469  0.0056 -0.4131
22225SOL    HW168116   0.845   7.347   9.108  0.5372  1.5224 -0.1996
22225SOL    HW268117   0.906   7.435   9.001  0.8730 -0.5050 -1.7430
22226SOL     OW68118   2.075   1.780  11.278  0.8758  0.4792  0.5822
22226SOL    HW168119   2.163   1.745  11.293  0.9661  0.7990  0.8174
22226SOL    HW268120   2.056   1.831  11.358 -0.4627 -1.4970  1.6050
22227SOL     OW68121   1.144   3.298   9.145  0.4305  0.1146 -0.0618
22227SOL    HW168122   1.226   3.345   9.162  0.1408  0.5906  0.0471
22227SOL    HW268123   1.113   3.271   9.232 -1.0682  2.5784  0.2602
22228SOL     OW68124   0.003   6.162   5.864  0.7776  0.0673  0.6146
22228SOL    HW168125   0.047   6.084   5.898  0.7067  0.1343  0.8571
22228SOL    HW268126   0.059   6.235   5.892  0.7717  0.1157  0.5027
22229SOL     OW68127   7.121   3.189   4.838 -0.2246 -0.2340 -0.0819
22229SOL    HW168128   7.036   3.233   4.842 -0.8334 -1.4491  1.4296
22229SOL    HW268129   7.180   3.246   4.887 -0.5090 -0.0668  0.0680
22230SOL     OW68130   4.488   2.738   8.648  0.0620  0.4900  0.7115
22230SOL    HW168131   4.451   2.667   8.595  0.6911 -0.3119  1.3075
22230SOL    HW268132   4.461   2.717   8.737 -1.3766  2.0777  0.6906
22231SOL     OW68133   5.001   6.624   3.195  0.2842  0.0449 -0.2286
22231SOL    HW168134   4.931   6.622   3.130  0.8165 -1.0813 -0.8058
22231SOL    HW268135   5.038   6.535   3.193  1.4331  0.4873  0.3801
22232SOL     OW68136   2.800   4.573   5.412 -0.4364 -0.0173  0.3659
22232SOL    HW168137   2.795   4.614   5.498 -0.1700 -0.1709  0.4548
22232SOL    HW268138   2.755   4.635   5.354 -0.0017  0.4245  0.4903
22233SOL     OW68139   6.951   3.032   5.454  0.5748 -0.6356 -0.1259
22233SOL    HW168140   6.980   2.947   5.486  0.4893 -0.0077  1.7412
22233SOL    HW268141   6.884   3.060   5.517 -1.3079 -0.3070 -2.1302
22234SOL     OW68142   5.580   6.685  11.129  0.3115  0.0289  0.8215
22234SOL    HW168143   5.571   6.593  11.106  0.5610  0.5337 -1.5977
22234SOL    HW268144   5.506   6.703  11.188 -1.3833 -1.1118 -0.8482
22235SOL     OW68145   2.013   5.092   0.605 -0.0186  0.0112 -0.5776
22235SOL    HW168146   1.974   5.156   0.546  1.3001  1.5610  0.1360
22235SOL    HW268147   2.083   5.140   0.649  0.6837 -1.7976  0.3917
22236SOL     OW68148   7.588   7.034   7.786  0.0296 -0.1623  0.1891
22236SOL    HW168149   7.574   7.011   7.694 -1.6209 -0.4718  0.4880
22236SOL    HW268150   7.608   7.127   7.785 -0.7971  0.0202 -0.4448
22237SOL     OW68151   0.962   4.499  10.155 -0.1376  0.1865  0.2841
22237SOL    HW168152   0.967   4.532  10.244  1.2098  1.1009 -0.0940
22237SOL    HW268153   0.880   4.533  10.120  0.6818  2.2998  0.2626
22238SOL     OW68154   7.658   4.780   3.095 -0.4725 -0.0046  0.1439
22238SOL    HW168155   7.605   4.860   3.103 -2.2072 -1.0643 -0.2774
22238SOL    HW268156   7.679   4.756   3.185 -0.4395  0.5952  0.3015
22239SOL     OW68157   1.081   6.565  11.074 -0.2320  0.0933  0.1304
22239SOL    HW168158   1.165   6.519  11.072 -0.7743 -1.1329 -3.8888
22239SOL    HW268159   1.104   6.656  11.091  2.1791  0.0302 -2.0651
22240SOL     OW68160   3.881   0.185   1.645 -0.0462  0.2392  0.2762
22240SOL    HW168161   3.831   0.174   1.565 -0.8731  0.4002  0.7615
22240SOL    HW268162   3.900   0.279   1.650  0.0616  0.2198  0.2376
22241SOL     OW68163   0.776   3.265   8.343  0.3110 -0.3830 -0.1777
22241SOL    HW168164   0.690   3.253   8.303  0.5049 -0.4000 -0.5917
22241SOL    HW268165   0.835   3.211   8.290  0.5483 -0.5111  0.2113
22242SOL     OW68166   1.421   7.181   7.579 -0.0988 -0.3911 -0.2697
22242SOL    HW168167   1.353   7.241   7.552  1.0625 -0.2615 -3.2255
22242SOL    HW268168   1.374   7.104   7.612 -1.7157 -0.4501 -2.5437
22243SOL     OW68169   5.997   4.413   9.977  0.5972 -0.4487 -0.2906
22243SOL    HW168170   5.917   4.414   9.924  0.4131 -1.8736 -0.0764
22243SOL    HW268171   5.987   4.487  10.037  0.7289  1.1058 -2.0857
22244SOL     OW68172   6.202   2.697   7.659 -0.0726 -0.1005 -0.3824
22244SOL    HW168173   6.162   2.620   7.699  0.2657 -0.2929 -0.4027
22244SOL    HW268174   6.191   2.767   7.724 -2.4148  0.4492 -1.2917
22245SOL     OW68175   1.499   3.785   9.529 -0.2909  0.3716  0.2196
22245SOL    HW168176   1.445   3.732   9.470 -3.5115  2.6569  0.8825
22245SOL    HW268177   1.539   3.720   9.588  0.4400 -1.6817 -2.3173
22246SOL     OW68178   5.110   6.137   1.506  0.1212  0.4444 -0.0379
22246SOL    HW168179   5.080   6.048   1.518  0.3806  0.4561  0.7142
22246SOL    HW268180   5.108   6.176   1.593 -0.6817  1.3998 -0.4608
22247SOL     OW68181   4.125   1.186   2.864 -0.4009  0.0336 -0.1304
22247SOL    HW168182   4.047   1.177   2.809 -1.1159  1.7946  0.5046
22247SOL    HW268183   4.197   1.199   2.802 -0.7845 -0.4937 -0.6975
22248SOL     OW68184   2.212   4.034  10.643  0.0553 -0.3601  0.4795
22248SOL    HW168185   2.283   3.993  10.594  0.8714 -0.4424  1.6878
22248SOL    HW268186   2.156   3.961  10.669 -0.4232 -0.3078 -0.3735
22249SOL     OW68187   3.220   1.301   1.297 -0.1045  0.0996 -1.0594
22249SOL    HW168188   3.212   1.242   1.222  1.8557  0.9017 -1.9646
22249SOL    HW268189   3.130   1.314   1.327 -0.8413 -1.0146 -2.6418
22250SOL     OW68190   1.429   3.386  11.274 -0.1805 -0.0103 -0.3113
22250SOL    HW168191   1.511   3.336  11.272 -0.8884 -1.3689  1.5590
22250SOL    HW268192   1.454   3.474  11.248  1.5226 -0.8142 -1.6455
22251SOL     OW68193   5.459   6.475   4.839  0.3531 -0.1350 -0.0684
22251SOL    HW168194   5.389   6.540   4.836 -0.6210 -1.1482 -2.7309
22251SOL    HW268195   5.537   6.522   4.811 -0.0608  0.2295 -0.6484
22252SOL     OW68196   4.748   6.478  10.934 -0.2248  0.1417  0.7301
22252SOL    HW168197   4.660   6.507  10.909  0.5782 -0.0851 -3.0694
22252SOL    HW268198   4.803   6.556  10.925  0.3630 -0.3142  0.2499
22253SOL     OW68199   0.746   5.156   3.065 -0.2894 -0.4945 -0.0882
22253SOL    HW168200   0.671   5.133   3.120 -2.2584 -2.0570 -3.0983
22253SOL    HW268201   0.713   5.227   3.010  1.1884  0.2132 -0.1116
22254SOL     OW68202   5.259   2.317  11.050  0.6739 -0.3655  0.0158
22254SOL    HW168203   5.195   2.274  11.107  1.5398  0.5354  1.7291
22254SOL    HW268204   5.207   2.353  10.978 -0.4024 -1.8110  0.0232
22255SOL     OW68205   6.037   7.130   2.408  0.2075 -0.5082  0.0694
22255SOL    HW168206   6.115   7.083   2.380 -0.3633 -0.7287 -1.2147
22255SOL    HW268207   6.052   7.221   2.380 -0.0667 -0.5904 -0.3593
22256SOL     OW68208   7.483   2.287   6.080  0.1745  0.0918  0.4256
22256SOL    HW168209   7.502   2.336   6.160 -0.6887 -0.4450  0.9716
22256SOL    HW268210   7.564   2.237   6.063 -0.0085 -0.6464  1.5966
22257SOL     OW68211   3.157   7.799   3.522 -0.0762 -0.0612 -0.5567
22257SOL    HW168212   3.090   7.855   3.562 -0.2707 -0.3131 -0.5274
22257SOL    HW268213   3.129   7.789   3.431 -1.9868 -2.9404  0.1959
22258SOL     OW68214   6.461   6.158   9.039 -0.2490  0.1260  0.4644
22258SOL    HW168215   6.517   6.226   9.004 -0.7331  0.6617  0.7131
22258SOL    HW268216   6.495   6.077   9.001 -0.1684  0.5844 -0.4753
22259SOL     OW68217   4.026   7.815   7.099  0.2340 -0.2347 -0.4750
22259SOL    HW168218   4.034   7.822   7.194 -1.5669 -1.5218 -0.1695
22259SOL    HW268219   4.106   7.855   7.064 -0.5517  3.3578  1.4390
22260SOL     OW68220   3.399   3.380   0.922  0.2456 -0.0410 -0.0652
22260SOL    HW168221   3.344   3.432   0.864 -1.4977 -1.8960 -0.1548
22260SOL    HW268222   3.469   3.440   0.948 -2.8137  3.1324  1.6718
22261SOL     OW68223   5.750   6.629   7.866  0.8403 -0.2164 -0.4533
22261SOL    HW168224   5.678   6.614   7.927 -0.1767 -0.0595 -1.5998
22261SOL    HW268225   5.828   6.627   7.922 -0.0026 -0.6995  0.7617
22262SOL     OW68226   7.621   7.306   3.999  0.2386  0.4002  0.3519
22262SOL    HW168227   7.571   7.225   4.000 -0.5020  0.8542  0.7681
22262SOL    HW268228   7.709   7.279   3.974 -0.3350 -0.3398 -0.9889
22263SOL     OW68229   6.700   2.132   9.516  0.2867  0.0046 -0.1880
22263SOL    HW168230   6.625   2.080   9.546 -0.4038  0.6871 -0.6752
22263SOL    HW268231   6.712   2.106   9.425  1.2041 -0.7256  0.1293
22264SOL     OW68232   7.113   3.896   8.299  0.5951  0.1033 -0.4681
22264SOL    HW168233   7.157   3.942   8.370 -0.4330  1.6075 -0.7565
22264SOL    HW268234   7.116   3.804   8.324  1.2811  0.4932  0.9429
22265SOL     OW68235   7.373   3.351   8.888 -0.1722  0.7225 -0.1114
22265SOL    HW168236   7.412   3.323   8.970 -1.4988  2.3452  1.1436
22265SOL    HW268237   7.417   3.433   8.866  0.4492  0.1076 -1.2638
22266SOL     OW68238   2.240   1.710   5.554 -0.0832 -0.0372  0.1506
22266SOL    HW168239   2.188   1.734   5.631  0.0378 -0.3796  0.3388
22266SOL    HW268240   2.253   1.792   5.507  0.6937  0.3427  1.0113
22267SOL     OW68241   1.512   3.224   0.442  0.0047  0.0684  0.1446
22267SOL    HW168242   1.496   3.314   0.412 -2.2671 -0.3930 -0.1929
22267SOL    HW268243   1.577   3.190   0.381  0.8077  1.4352  0.1993
22268SOL     OW68244   4.671   6.224   5.855  0.0849 -0.0510  0.0689
22268SOL    HW168245   4.727   6.218   5.777 -0.2855 -0.8331 -0.1489
22268SOL    HW268246   4.711   6.164   5.918  0.3715  0.5659  0.4782
22269SOL     OW68247   4.113   1.724  12.362  0.2976  0.1383 -0.2630
22269SOL    HW168248   4.147   1.812  12.375  0.5097  0.1343 -0.7823
22269SOL    HW268249   4.027   1.737  12.322  0.8790  0.0903 -1.5748
22270SOL     OW68250   2.185   6.313   2.045 -0.6054 -0.6523  0.6269
22270SOL    HW168251   2.165   6.226   2.080 -0.5799 -0.7263  0.4597
22270SOL    HW268252   2.201   6.366   2.123 -2.5174 -0.3006  0.8334
22271SOL     OW68253   6.445   0.554   5.304 -0.0075 -0.6240 -0.2007
22271SOL    HW168254   6.469   0.568   5.396 -1.0772 -0.8796  0.1295
22271SOL    HW268255   6.481   0.468   5.282  0.5467 -0.4143 -0.1330
22272SOL     OW68256   7.269   3.762   7.677 -0.0040 -0.8800  0.1620
22272SOL    HW168257   7.216   3.826   7.725  1.8686  0.1393  0.9559
22272SOL    HW268258   7.212   3.733   7.605 -1.3675  0.6915  0.5473
22273SOL     OW68259   7.876   1.585   8.813  0.5594  0.2804 -0.0062
22273SOL    HW168260   7.838   1.504   8.847  1.7669  0.3501  1.6229
22273SOL    HW268261   7.800   1.637   8.787 -0.3909 -0.2689  1.5150
22274SOL     OW68262   5.023   0.668   5.673 -0.2548 -0.1660  0.1748
22274SOL    HW168263   5.007   0.574   5.665 -0.1513 -0.2091  0.4672
22274SOL    HW268264   5.099   0.684   5.616 -1.8384  0.1980 -1.9479
22275SOL     OW68265   3.544   7.032   7.747 -0.0511  0.0133 -0.2146
22275SOL    HW168266   3.465   6.988   7.717 -0.3498  1.4409 -1.7385
22275SOL    HW268267   3.514   7.120   7.772  0.6478 -0.2979  1.8531
22276SOL     OW68268   1.578   2.687   0.461 -0.5226  0.6569  1.1193
22276SOL    HW168269   1.660   2.687   0.412 -1.5867 -0.1723 -0.7868
22276SOL    HW268270   1.552   2.779   0.465 -0.0553  0.8105  0.7364
22277SOL     OW68271   4.228   2.066   4.291  0.7798 -0.3322  0.2273
22277SOL    HW168272   4.195   2.073   4.381  2.9028 -0.5416  1.0675
22277SOL    HW268273   4.181   1.992   4.254  0.1936 -0.5202  1.3098
22278SOL     OW68274   7.502   6.342   5.509  0.0129 -0.0551  0.5633
22278SOL    HW168275   7.588   6.370   5.478  1.7404 -1.2304  3.8940
22278SOL    HW268276   7.455   6.423   5.528 -0.1096  0.6245 -2.2064
22279SOL     OW68277   6.811   7.471   9.865 -0.0207  0.4845  0.0819
22279SOL    HW168278   6.717   7.465   9.854 -0.1333  1.2280  0.5954
22279SOL    HW268279   6.844   7.384   9.840 -0.9856 -0.3269  1.5054
22280SOL     OW68280   3.013   4.024   9.846 -0.2984 -0.1297 -0.3534
22280SOL    HW168281   3.032   4.012   9.939  1.3155  0.5721 -0.5751
22280SOL    HW268282   3.067   3.958   9.801 -0.2824  0.2233 -0.8596
22281SOL     OW68283   7.180   7.924   3.464  0.0578 -0.7144 -0.2421
22281SOL    HW168284   7.256   7.880   3.502  1.1165 -0.8683 -2.4343
22281SOL    HW268285   7.149   7.982   3.534  3.1934  0.5993  0.2140
22282SOL     OW68286   0.665   2.170   6.560 -0.2110  0.2968 -0.7807
22282SOL    HW168287   0.710   2.086   6.571 -0.4381  0.2831  0.0686
22282SOL    HW268288   0.720   2.233   6.607 -1.5107  0.1282  1.0622
22283SOL     OW68289   7.281   6.565   6.263  0.7899 -0.0969 -0.2254
22283SOL    HW168290   7.276   6.559   6.168 -0.5875 -1.3971 -0.1245
22283SOL    HW268291   7.299   6.657   6.282  1.0241  0.1803 -1.7293
22284SOL     OW68292   7.404   7.043   6.993  0.6629  0.1068  0.3763
22284SOL    HW168293   7.365   7.108   6.934 -0.2887  1.3661  2.2743
22284SOL    HW268294   7.459   7.095   7.051  2.3272 -1.2233  0.0615
22285SOL     OW68295   5.350   4.309  11.978 -0.2694 -0.1369  0.0271
22285SOL    HW168296   5.393   4.224  11.976 -1.5937 -0.8466 -2.3845
22285SOL    HW268297   5.380   4.353  11.900  0.4643  1.7164  1.2910
22286SOL     OW68298   4.673   3.205   9.397  0.0342 -0.3992  0.2832
22286SOL    HW168299   4.708   3.293   9.389 -1.9767  0.3796 -0.4355
22286SOL    HW268300   4.714   3.156   9.325 -0.1666  0.4075 -0.3879
22287SOL     OW68301   2.243   4.907   9.322  0.1103  0.1432 -0.0502
22287SOL    HW168302   2.196   4.886   9.242 -0.4894  1.3326 -0.0280
22287SOL    HW268303   2.195   4.980   9.360  0.5345 -0.2324  1.2685
22288SOL     OW68304   4.354   7.947   3.609 -0.6177 -0.2160  0.0713
22288SOL    HW168305   4.371   8.034   3.644  0.4007 -0.8677  1.2871
22288SOL    HW268306   4.435   7.922   3.564 -0.8846 -0.5388 -0.2378
22289SOL     OW68307   3.873   6.625   5.600  0.3259 -0.1021 -0.3063
22289SOL    HW168308   3.846   6.550   5.653  0.9946 -0.9849 -1.1597
22289SOL    HW268309   3.836   6.701   5.644  2.2081 -0.6145  2.3465
22290SOL     OW68310   1.034   1.722   3.285  0.3756 -0.0923 -0.2639
22290SOL    HW168311   0.941   1.707   3.301  0.6180 -1.1475  0.2254
22290SOL    HW268312   1.072   1.634   3.284  1.3720  0.3344 -0.4306
22291SOL     OW68313   0.637   7.919  11.165 -0.4372 -0.2812 -0.0207
22291SOL    HW168314   0.688   7.995  11.137  1.3681 -1.8697 -1.3746
22291SOL    HW268315   0.702   7.849  11.176 -2.1446 -2.0269 -0.3726
22292SOL     OW68316   4.862   6.858   5.193  0.2752 -0.4278 -0.2276
22292SOL    HW168317   4.845   6.810   5.112  0.8306  1.8630 -1.8119
22292SOL    HW268318   4.817   6.942   5.182  2.2950  0.8822  0.7816
22293SOL     OW68319   6.831   5.078  11.365  0.4991 -1.1951 -0.0385
22293SOL    HW168320   6.743   5.089  11.402  0.9267 -0.5531  0.8319
22293SOL    HW268321   6.876   5.159  11.388  1.7709 -2.1032  0.8062
22294SOL     OW68322   0.180   1.427   4.178  0.9061 -0.1343  0.3555
22294SOL    HW168323   0.142   1.343   4.204  0.9197 -0.0616  0.6183
22294SOL    HW268324   0.144   1.444   4.091  1.8837 -1.0101 -0.2459
22295SOL     OW68325   6.186   1.594  11.706  0.3763 -0.5630  0.3282
22295SOL    HW168326   6.192   1.621  11.798 -1.7083 -1.7970  0.8975
22295SOL    HW268327   6.119   1.650  11.668 -0.3923 -1.5703  0.1804
22296SOL     OW68328   1.242   7.400   7.852  0.3394 -0.5866 -0.3957
22296SOL    HW168329   1.318   7.451   7.880  0.4332 -1.2816  0.6570
22296SOL    HW268330   1.260   7.379   7.760  0.6488  0.6234 -0.6243
22297SOL     OW68331   6.246   5.453   3.780 -0.5363  0.0770 -0.4447
22297SOL    HW168332   6.201   5.515   3.722 -1.2065 -0.7376 -0.8066
22297SOL    HW268333   6.339   5.463   3.758 -0.4740  1.8746  0.4128
22298SOL     OW68334   6.657   6.078   5.282 -0.5479 -0.0839  0.2043
22298SOL    HW168335   6.706   6.152   5.245  0.4156 -0.4788  0.6767
22298SOL    HW268336   6.611   6.115   5.357 -0.4506  0.1367  0.1564
22299SOL     OW68337   1.735   4.858   6.784 -0.3620 -0.2906  0.6055
22299SOL    HW168338   1.697   4.942   6.810 -1.1258 -0.5337  0.2938
22299SOL    HW268339   1.748   4.866   6.690  1.5993  0.2665  0.8617
22300SOL     OW68340   5.470   1.368   1.252  0.1347 -0.2598 -0.2333
22300SOL    HW168341   5.390   1.320   1.229 -1.7678  1.5836  2.0001
22300SOL    HW268342   5.525   1.304   1.296 -1.6501 -0.8209  1.2823
22301SOL     OW68343   7.389   4.650   3.388  0.0535  0.1789 -0.1831
22301SOL    HW168344   7.342   4.594   3.327  0.7481 -0.9316  0.2809
22301SOL    HW268345   7.444   4.591   3.439  3.0518  1.5031 -1.6048
22302SOL     OW68346   2.645   3.987   9.044  0.1937 -0.0049 -0.2826
22302SOL    HW168347   2.575   3.922   9.047 -0.2240  0.4857  1.2834
22302SOL    HW268348   2.706   3.953   8.978 -1.5390 -0.3953 -1.7792
22303SOL     OW68349   3.368   4.887   5.095  0.4091 -0.3400  0.5184
22303SOL    HW168350   3.333   4.821   5.155 -0.3577  0.4824  0.9931
22303SOL    HW268351   3.300   4.898   5.029  0.4877  0.0418  0.4974
22304SOL     OW68352   6.711   4.896  11.741 -0.6327  0.1282 -0.2802
22304SOL    HW168353   6.625   4.910  11.701 -1.2930  0.6342  1.2460
22304SOL    HW268354   6.697   4.912  11.834  1.1997  0.5384 -0.0424
22305SOL     OW68355   1.849   0.539   4.218  0.4628 -0.2845 -0.5898
22305SOL    HW168356   1.761   0.514   4.247  0.3128 -0.5935 -1.2884
22305SOL    HW268357   1.897   0.554   4.299  0.3796 -2.2031 -0.1407
22306SOL     OW68358   4.138   6.397   8.304 -0.7087  0.4736  0.2311
22306SOL    HW168359   4.046   6.421   8.289 -0.5346  0.7493 -0.4675
22306SOL    HW268360   4.138   6.354   8.389 -1.9133 -1.7695 -0.7951
22307SOL     OW68361   1.688   5.907   3.575  0.1244 -0.6005  1.1687
22307SOL    HW168362   1.614   5.873   3.525  0.4976 -0.0015  0.1660
22307SOL    HW268363   1.741   5.830   3.595 -0.1175 -0.8709  0.7824
22308SOL     OW68364   2.197   3.260   2.027  0.3799  0.2342  0.1140
22308SOL    HW168365   2.228   3.180   2.069  0.1230  0.4636  0.7634
22308SOL    HW268366   2.265   3.325   2.046 -1.0595  1.1249  2.7987
22309SOL     OW68367   5.660   3.961   8.923 -0.0751 -0.0723  0.4020
22309SOL    HW168368   5.745   3.998   8.899  0.3548 -0.7191  0.8943
22309SOL    HW268369   5.669   3.867   8.909 -0.0884 -0.3849  2.1806
22310SOL     OW68370   6.260   0.222   2.486  0.3896  0.3160  0.0908
22310SOL    HW168371   6.259   0.150   2.423 -0.6125 -0.3843  0.8679
22310SOL    HW268372   6.278   0.180   2.570  4.1470  1.4924  0.0586
22311SOL     OW68373   1.692   0.860   1.483 -0.1258 -0.3072 -0.8194
22311SOL    HW168374   1.744   0.939   1.466  0.3778 -0.3936  0.2288
22311SOL    HW268375   1.750   0.803   1.533 -1.1984 -0.4094  0.3646
22312SOL     OW68376   2.512   5.238   1.952 -0.2014  0.0919  0.2145
22312SOL    HW168377   2.598   5.219   1.913  0.1037  1.3895  0.1965
22312SOL    HW268378   2.520   5.328   1.984 -1.6438  0.3337 -0.0353
22313SOL     OW68379   3.887   6.166   3.473  0.3085  0.3087  0.4784
22313SOL    HW168380   3.834   6.246   3.472  0.7488  0.6132  1.0624
22313SOL    HW268381   3.915   6.156   3.564  0.1712 -0.5765  0.4335
22314SOL     OW68382   2.102   7.273   7.634  0.3604  0.3674  0.4641
22314SOL    HW168383   2.089   7.301   7.543 -0.6211 -0.9625  0.1614
22314SOL    HW268384   2.013   7.269   7.670  0.8267  2.4423  2.0206
22315SOL     OW68385   2.410   1.132   8.736 -0.0854  0.0842  0.1960
22315SOL    HW168386   2.401   1.040   8.710  2.4569 -0.3691  0.6710
22315SOL    HW268387   2.475   1.167   8.675  0.2787  1.0763  1.1303
22316SOL     OW68388   0.474   3.949   8.516  0.4337  0.2677 -0.4650
22316SOL    HW168389   0.547   3.919   8.462 -0.4274 -1.6828 -0.6263
22316SOL    HW268390   0.398   3.945   8.459  0.1393  2.2071 -0.2752
22317SOL     OW68391   5.354   7.091   7.319 -0.7990 -0.4128  0.0193
22317SOL    HW168392   5.344   7.090   7.224 -0.0768 -0.5606 -0.0589
22317SOL    HW268393   5.425   7.030   7.337 -1.7388 -1.3250  0.7709
22318SOL     OW68394   3.341   0.577   9.600 -0.3139  0.5549 -0.0410
22318SOL    HW168395   3.410   0.643   9.609  1.8446 -1.3982 -1.3723
22318SOL    HW268396   3.314   0.583   9.509  0.4860 -0.9334 -0.3891
22319SOL     OW68397   4.638   1.610  12.136  0.2836  0.0910 -0.1737
22319SOL    HW168398   4.569   1.548  12.157  1.6948 -1.1005  1.1344
22319SOL    HW268399   4.643   1.609  12.041  1.4529 -3.2295 -0.1940
22320SOL     OW68400   5.440   4.894   3.404  0.1343 -0.0708 -0.1739
22320SOL    HW168401   5.532   4.919   3.408 -0.8496  3.9101  1.8553
22320SOL    HW268402   5.440   4.800   3.424  3.7369 -0.4605 -1.3228
22321SOL     OW68403   0.391   7.228   0.985 -0.0781  0.4255 -0.3639
22321SOL    HW168404   0.358   7.243   1.073  0.2831 -0.1598 -0.1224
22321SOL    HW268405   0.406   7.133   0.981 -0.3570  0.4019 -1.1427
22322SOL     OW68406   5.360   1.684   3.902 -0.0529 -0.2662  0.2837
22322SOL    HW168407   5.368   1.771   3.863 -1.9793 -0.6544 -1.1508
22322SOL    HW268408   5.368   1.624   3.828  4.6119 -1.6478  1.6109
22323SOL     OW68409   0.793   4.678   2.280 -0.4702 -0.3887  0.1003
22323SOL    HW168410   0.706   4.650   2.253 -0.1506 -1.8530  0.4700
22323SOL    HW268411   0.817   4.617   2.351  0.5925  0.3802  0.4282
22324SOL     OW68412   5.351   1.512  11.165  0.2526 -0.3370 -0.1647
22324SOL    HW168413   5.369   1.434  11.111 -2.6814 -0.6160 -0.9129
22324SOL    HW268414   5.346   1.584  11.101 -0.1936 -0.1253  0.1026
22325SOL     OW68415   4.916   3.850   1.161 -0.4006 -0.2325  0.8626
22325SOL    HW168416   4.879   3.938   1.151 -1.9967 -0.8643  1.0284
22325SOL    HW268417   4.952   3.829   1.075  0.6769  0.8512  1.0090
22326SOL     OW68418   2.663   5.406   1.225 -0.2347  0.0379 -0.2615
22326SOL    HW168419   2.758   5.406   1.235 -0.1807  0.2774 -0.7195
22326SOL    HW268420   2.634   5.327   1.271  0.0850  0.4777  0.7233
22327SOL     OW68421   3.326   5.693   1.741 -0.0734 -0.4086 -0.0768
22327SOL    HW168422   3.312   5.755   1.812 -1.6464 -0.9405  0.1370
22327SOL    HW268423   3.342   5.609   1.785  1.2284 -0.3323 -0.3659
22328SOL     OW68424   7.086   5.321  11.134 -0.1522  0.0314  0.2148
22328SOL    HW168425   7.037   5.312  11.215  2.6343 -0.8595  1.9258
22328SOL    HW268426   7.135   5.403  11.144 -1.2838  0.9856 -1.5165
22329SOL     OW68427   1.312   6.458   4.950  0.1194 -0.3652 -0.3416
22329SOL    HW168428   1.364   6.384   4.980  0.1432 -0.4922 -0.6946
22329SOL    HW268429   1.245   6.419   4.893 -0.2868 -0.1902  0.0123
22330SOL     OW68430   7.799   3.198   0.502 -0.1633  0.1160 -0.3724
22330SOL    HW168431   7.775   3.116   0.458  1.1157  0.3684 -1.5746
22330SOL    HW268432   7.790   3.266   0.436  0.4410  0.7090  0.1335
22331SOL     OW68433   1.068   6.763   8.011 -0.9889  0.4020  0.2263
22331SOL    HW168434   1.051   6.857   8.001 -0.1608  0.4870 -0.4907
22331SOL    HW268435   1.004   6.721   7.953  0.6434  0.6917 -1.9264
22332SOL     OW68436   7.767   2.341  11.623 -0.5748 -0.6944 -0.2478
22332SOL    HW168437   7.858   2.357  11.596 -0.2347 -2.2610 -0.1728
22332SOL    HW268438   7.714   2.373  11.550  0.0803 -0.4110 -0.6060
22333SOL     OW68439   1.962   0.640  11.329 -0.2128  0.5404 -0.0549
22333SOL    HW168440   1.872   0.669  11.315 -0.0575  1.5343  0.8184
22333SOL    HW268441   1.955   0.569  11.394 -0.3120  1.2903  0.7797
22334SOL     OW68442   1.750   4.822  10.747 -0.6545 -0.0168 -0.2059
22334SOL    HW168443   1.749   4.738  10.795  0.9045 -1.3936 -2.3946
22334SOL    HW268444   1.789   4.884  10.809  1.4037 -1.7419  0.3760
22335SOL     OW68445   3.729   6.558   5.343 -0.4518  0.5534 -0.0741
22335SOL    HW168446   3.738   6.548   5.437  0.9481  1.2946 -0.1000
22335SOL    HW268447   3.775   6.639   5.322 -2.2627  1.3752 -1.1880
22336SOL     OW68448   7.627   7.554  12.195 -0.2693  0.9913 -0.1834
22336SOL    HW168449   7.565   7.529  12.264 -0.1255  1.3383  0.0762
22336SOL    HW268450   7.694   7.486  12.198 -0.6104  0.6370 -0.4362
22337SOL     OW68451   2.379   1.167   7.995  0.5135 -0.2934 -0.0869
22337SOL    HW168452   2.343   1.092   8.043  0.8024 -0.2291  0.2425
22337SOL    HW268453   2.304   1.222   7.975  0.2516 -0.8452 -0.6430
22338SOL     OW68454   3.052   7.018   4.503  0.1708  0.7848 -0.3668
22338SOL    HW168455   2.995   7.035   4.578  0.1077 -1.8199  0.2824
22338SOL    HW268456   3.141   7.031   4.536  0.1391 -0.2719  0.1692
22339SOL     OW68457   4.847   0.487   0.787 -0.0788  0.3751 -0.4532
22339SOL    HW168458   4.900   0.521   0.859 -1.1633 -0.6683  0.8792
22339SOL    HW268459   4.759   0.520   0.803 -0.8847 -1.9145  0.1722
22340SOL     OW68460   1.617   6.976   7.552 -0.4971  0.5634 -0.6439
22340SOL    HW168461   1.549   7.042   7.544  0.3870  1.3523 -1.9261
22340SOL    HW268462   1.571   6.892   7.546 -1.3871  1.0854 -1.1526
22341SOL     OW68463   4.023   7.621   4.607 -0.9803  0.0722 -0.3379
22341SOL    HW168464   4.039   7.715   4.606  3.8819 -0.5391 -0.5919
22341SOL    HW268465   4.043   7.593   4.696  1.8074 -1.1110 -1.2306
22342SOL     OW68466   4.504   2.223   6.209 -0.8137  0.3400  0.3077
22342SOL    HW168467   4.490   2.317   6.205 -1.2204  0.2568 -0.8311
22342SOL    HW268468   4.447   2.188   6.140  1.4021 -0.4794 -1.1996
22343SOL     OW68469   4.143   7.416   2.531 -0.1961 -0.5480  0.6894
22343SOL    HW168470   4.214   7.386   2.473  0.8501 -0.4647  1.8972
22343SOL    HW268471   4.120   7.338   2.581 -1.4802 -0.7588 -0.1951
22344SOL     OW68472   5.969   4.792   7.132  0.0432 -0.1915 -0.0949
22344SOL    HW168473   5.933   4.800   7.220 -1.1585 -0.4591 -0.5437
22344SOL    HW268474   6.013   4.876   7.117  1.1257 -0.5147  1.1095
22345SOL     OW68475   6.183   7.394   1.820 -0.5056 -0.2792 -0.2488
22345SOL    HW168476   6.235   7.343   1.882 -0.8417  1.7630  1.8682
22345SOL    HW268477   6.095   7.395   1.858 -0.1004  3.4534  1.0137
22346SOL     OW68478   2.995   7.194   5.130 -0.0113  0.6655 -0.1554
22346SOL    HW168479   3.037   7.233   5.207 -1.2469  0.6893  0.5218
22346SOL    HW268480   3.050   7.118   5.109  1.1544  1.4688 -0.1493
22347SOL     OW68481   1.677   3.971   4.106 -0.3816  0.0242  0.3454
22347SOL    HW168482   1.766   3.948   4.079 -0.3105  1.2404 -0.5448
22347SOL    HW268483   1.690   4.038   4.173 -0.6248  0.3186  0.1004
22348SOL     OW68484   3.238   2.550   2.415 -1.0657  0.2078  0.5035
22348SOL    HW168485   3.258   2.562   2.323  0.6992  1.9725  1.0592
22348SOL    HW268486   3.175   2.619   2.435 -0.5801  0.5532  0.8610
22349SOL     OW68487   2.305   1.622   8.866  0.6774  0.6775  0.8666
22349SOL    HW168488   2.347   1.600   8.783 -1.9287  0.5536 -0.4900
22349SOL    HW268489   2.300   1.718   8.866 -0.8046  0.6146  0.0777
22350SOL     OW68490   2.565   6.671   5.956  0.3117  0.2050 -0.4138
22350SOL    HW168491   2.596   6.675   5.866 -2.0060  0.5567 -1.2773
22350SOL    HW268492   2.499   6.601   5.956 -1.6133  1.9111  0.3068
22351SOL     OW68493   7.942   5.303  12.459 -0.4446 -0.1606  0.2725
22351SOL    HW168494   8.008   5.373  12.457  2.5489 -2.7007  1.7006
22351SOL    HW268495   7.958   5.253  12.379 -0.2549 -1.0911  0.8784
22352SOL     OW68496   7.925   2.628  11.307  0.1790  0.2225 -0.6067
22352SOL    HW168497   7.988   2.560  11.285 -1.7150 -2.0737  0.5887
22352SOL    HW268498   7.848   2.608  11.253 -0.2116  1.8485 -0.7127
22353SOL     OW68499   3.370   3.586   2.576  0.0416  0.4244 -0.0419
22353SOL    HW168500   3.396   3.525   2.507  0.1427  0.7069 -0.2572
22353SOL    HW268501   3.452   3.619   2.612 -0.0095  0.7413 -0.2056
22354SOL     OW68502   6.331   0.557  10.614 -0.1339  0.8063  0.2321
22354SOL    HW168503   6.355   0.619  10.683 -2.4200  2.0120  0.0343
22354SOL    HW268504   6.255   0.511  10.649 -1.0051  1.0638 -1.2438
22355SOL     OW68505   2.632   1.775  11.842 -0.8063 -0.1002  0.1654
22355SOL    HW168506   2.637   1.728  11.926 -1.2124  0.8539  0.7389
22355SOL    HW268507   2.675   1.717  11.779  1.0926 -0.0870  1.3656
22356SOL     OW68508   3.774   2.842  10.001 -0.2939 -0.8659 -0.4249
22356SOL    HW168509   3.842   2.906   9.981 -0.3888 -1.3316 -2.4827
22356SOL    HW268510   3.776   2.833  10.096  2.0364 -0.3572 -0.3679
22357SOL     OW68511   1.785   3.748  11.965  0.5328  0.6847  0.0442
22357SOL    HW168512   1.800   3.674  11.906  2.9956  0.2180  1.1071
22357SOL    HW268513   1.780   3.709  12.052  1.8345  1.7148  0.6179
22358SOL     OW68514   1.736   3.139   9.146  0.3846 -0.6123  0.0489
22358SOL    HW168515   1.691   3.063   9.183  0.0389 -0.3776  0.1148
22358SOL    HW268516   1.805   3.159   9.209  1.2844 -1.6252 -0.5635
22359SOL     OW68517   4.980   3.190   7.305 -0.5769  0.1025 -0.2764
22359SOL    HW168518   4.946   3.106   7.336  1.1142 -0.5825 -0.1995
22359SOL    HW268519   4.936   3.255   7.360 -0.8258 -0.8214  0.6581
22360SOL     OW68520   0.382   1.937   4.872 -0.0062 -0.2615  0.8662
22360SOL    HW168521   0.331   1.954   4.952 -0.1435  1.0278  0.5321
22360SOL    HW268522   0.316   1.908   4.808 -0.0951 -0.0735  0.8701
22361SOL     OW68523   5.670   3.079  10.153 -0.0706  0.2025 -0.2716
22361SOL    HW168524   5.702   3.128  10.228 -1.1139 -0.8046  0.8777
22361SOL    HW268525   5.735   3.095  10.084 -0.0357  2.6253  0.2346
22362SOL     OW68526   4.775   2.279   1.225  0.0278  0.1883 -0.3345
22362SOL    HW168527   4.754   2.277   1.318 -0.3082 -0.0259 -0.4107
22362SOL    HW268528   4.802   2.189   1.205  0.1868  0.2560 -0.4231
22363SOL     OW68529   1.282   0.946   2.291  0.0207  0.4676 -0.1238
22363SOL    HW168530   1.349   1.013   2.281  0.0137  0.1996 -2.3051
22363SOL    HW268531   1.330   0.863   2.285 -0.2814  0.2650  0.2023
22364SOL     OW68532   1.207   7.385   2.774  0.3244 -0.1741  0.3598
22364SOL    HW168533   1.117   7.354   2.759  0.3291 -0.5678  1.1228
22364SOL    HW268534   1.260   7.306   2.771  0.8039  0.1593 -1.1002
22365SOL     OW68535   6.076   3.115   1.491  0.1008  0.0209 -0.5044
22365SOL    HW168536   6.013   3.112   1.564  0.2635 -0.8445 -0.3907
22365SOL    HW268537   6.021   3.123   1.413 -0.0897  0.5388 -0.3270
22366SOL     OW68538   3.882   3.870   0.904 -0.4170 -0.0067 -0.8779
22366SOL    HW168539   3.968   3.878   0.863  0.0083 -0.4102 -0.0899
22366SOL    HW268540   3.820   3.877   0.831  0.2999 -0.3324 -1.5358
22367SOL     OW68541   4.998   1.081   2.934  0.4188 -0.3691 -0.4973
22367SOL    HW168542   4.974   1.160   2.886  1.2826  0.0056 -0.3301
22367SOL    HW268543   5.079   1.104   2.979  0.7164 -1.3704 -0.4998
22368SOL     OW68544   7.045   0.700   1.238 -0.7318 -0.1853 -0.2861
22368SOL    HW168545   7.122   0.753   1.259  0.4513 -1.5519 -0.9890
22368SOL    HW268546   7.005   0.743   1.162 -0.6817  0.5359  0.0913
22369SOL     OW68547   2.330   1.684  11.356  0.4267 -0.2207 -0.3981
22369SOL    HW168548   2.315   1.725  11.441 -2.0049  2.4564 -1.9500
22369SOL    HW268549   2.414   1.717  11.327 -0.1333  1.3547 -0.3011
22370SOL     OW68550   1.005   3.755   2.469 -0.6256 -0.7340  0.1623
22370SOL    HW168551   0.929   3.730   2.520  0.4524 -2.0959  1.1825
22370SOL    HW268552   1.071   3.778   2.535  0.2621 -0.8933 -0.6557
22371SOL     OW68553   7.429   5.310   9.279 -0.1602 -0.0787 -0.7579
22371SOL    HW168554   7.365   5.366   9.236 -0.5994  0.7061  0.8576
22371SOL    HW268555   7.508   5.364   9.287 -0.0956 -0.2011 -0.5468
22372SOL     OW68556   5.623   6.305   6.463  0.2473  0.0760 -0.2205
22372SOL    HW168557   5.700   6.252   6.443  0.5816  0.2255  0.6215
22372SOL    HW268558   5.651   6.362   6.535  0.1990  2.0741 -1.6725
22373SOL     OW68559   5.454   0.107   8.279 -0.1521  0.1440  0.3535
22373SOL    HW168560   5.498   0.192   8.285 -0.7245  0.5287 -0.6505
22373SOL    HW268561   5.425   0.089   8.368  0.1732  0.8934  0.6232
22374SOL     OW68562   1.721   1.996   5.957 -0.4477  0.4424  0.4804
22374SOL    HW168563   1.626   1.998   5.965 -0.4880 -0.9737  0.4948
22374SOL    HW268564   1.748   1.921   6.009  0.4901 -0.4291 -1.1702
22375SOL     OW68565   7.434   3.952  10.019  0.2324 -0.1803 -0.0897
22375SOL    HW168566   7.422   3.858  10.026  0.4377 -0.2319 -0.3830
22375SOL    HW268567   7.513   3.970  10.069  1.4040 -0.4750 -1.7280
22376SOL     OW68568   3.673   4.231   1.934 -0.3533  0.5135  0.4403
22376SOL    HW168569   3.767   4.245   1.939  0.1331 -1.8161 -0.7894
22376SOL    HW268570   3.637   4.279   2.008  1.5551  3.1632 -0.2142
22377SOL     OW68571   4.203   4.785   9.578  0.6106 -0.0212  0.8752
22377SOL    HW168572   4.210   4.835   9.659  0.8439 -0.3870  1.0831
22377SOL    HW268573   4.118   4.741   9.583  0.1423  0.8208  0.4228
22378SOL     OW68574   6.313   6.905   4.759 -0.4804  0.2795 -0.3799
22378SOL    HW168575   6.308   6.989   4.712  0.4809  0.9184  0.6158
22378SOL    HW268576   6.400   6.904   4.798 -1.2889 -0.1185  1.5540
22379SOL     OW68577   6.513   4.541   4.948  0.1583 -0.1182  0.2798
22379SOL    HW168578   6.520   4.514   5.039  0.5154  1.9521  0.9265
22379SOL    HW268579   6.423   4.573   4.939  0.0313 -0.5968 -0.1833
22380SOL     OW68580   3.428   1.158   6.565  0.3369 -0.3865  0.2964
22380SOL    HW168581   3.455   1.071   6.596  0.5152 -0.4791 -0.1175
22380SOL    HW268582   3.454   1.217   6.636  1.6570 -0.4744 -0.0895
22381SOL     OW68583   0.604   4.505   4.140  0.1834  0.1337 -0.0605
22381SOL    HW168584   0.584   4.517   4.233 -0.1802 -0.8747  0.0043
22381SOL    HW268585   0.542   4.563   4.095  0.5882  0.8782  0.3297
22382SOL     OW68586   3.328   2.565   5.020  0.0645  0.0630  0.1107
22382SOL    HW168587   3.358   2.558   5.111  1.8746 -1.2971 -0.5350
22382SOL    HW268588   3.385   2.631   4.981 -1.2447  1.2458  0.1174
22383SOL     OW68589   1.924   3.183  10.844 -0.4399 -0.3632  0.2004
22383SOL    HW168590   1.930   3.095  10.807 -0.5305 -1.0273  1.6893
22383SOL    HW268591   2.010   3.222  10.828 -0.7578 -0.2763 -1.4730
22384SOL     OW68592   6.549   4.730   2.291  0.0598 -0.0933  0.0894
22384SOL    HW168593   6.634   4.773   2.303 -0.6048  0.9541  1.2894
22384SOL    HW268594   6.532   4.686   2.374 -0.4953 -0.4423 -0.2026
22385SOL     OW68595   3.729   3.732   7.593 -0.5625 -0.4257 -0.2619
22385SOL    HW168596   3.723   3.740   7.689  0.7731  0.0776 -0.1958
22385SOL    HW268597   3.650   3.774   7.561 -2.2285 -2.6058  0.6518
22386SOL     OW68598   6.820   6.111   8.676 -0.4133 -0.1460 -0.0821
22386SOL    HW168599   6.898   6.146   8.635 -0.1893 -0.9416 -0.3451
22386SOL    HW268600   6.783   6.051   8.611 -2.8547  2.3189 -1.1750
22387SOL     OW68601   6.699   4.610   6.378  0.3120  0.3795  0.0887
22387SOL    HW168602   6.604   4.607   6.386  0.3031  2.0179  1.2315
22387SOL    HW268603   6.732   4.573   6.460  0.7414 -1.7084 -0.9624
22388SOL     OW68604   4.021   0.641   6.852 -0.5341 -0.1800  0.1247
22388SOL    HW168605   4.111   0.661   6.826 -0.6853  0.4998  0.0949
22388SOL    HW268606   4.024   0.551   6.886  0.4583  0.3336  1.5012
22389SOL     OW68607   5.860   2.019   3.530 -0.2547 -0.1838  0.0491
22389SOL    HW168608   5.831   2.108   3.513  0.0101  0.1493  1.2658
22389SOL    HW268609   5.907   1.994   3.450 -0.1767  0.8201 -0.2362
22390SOL     OW68610   3.828   7.789   4.272 -0.3822  0.4099  0.3508
22390SOL    HW168611   3.887   7.864   4.277 -1.1696  1.0063  0.9248
22390SOL    HW268612   3.783   7.788   4.356 -0.5437 -0.5726  0.2589
22391SOL     OW68613   5.590   0.157   7.890  0.1671 -0.3020 -0.0741
22391SOL    HW168614   5.509   0.108   7.880 -0.4776  0.4889  1.0071
22391SOL    HW268615   5.562   0.243   7.924  1.2437  0.8626 -1.9491
22392SOL     OW68616   7.323   6.174   7.996 -0.0855 -0.1563  0.0112
22392SOL    HW168617   7.283   6.088   7.989  0.7875 -0.4653 -1.8121
22392SOL    HW268618   7.377   6.169   8.075  1.8758 -2.1761 -1.3352
22393SOL     OW68619   1.515   6.955   6.098  0.2131  0.4775 -0.5807
22393SOL    HW168620   1.514   6.916   6.186  0.6042 -0.1364 -0.8441
22393SOL    HW268621   1.439   7.014   6.097 -0.0557  0.1497  0.0155
22394SOL     OW68622   5.210   7.165  12.421  0.2309  0.5173  0.4434
22394SOL    HW168623   5.289   7.187  12.372  0.4942 -1.0010  0.1261
22394SOL    HW268624   5.234   7.087  12.472 -1.2226 -0.3877 -0.1717
22395SOL     OW68625   3.256   1.605   7.002 -0.5975 -0.0984  0.4669
22395SOL    HW168626   3.163   1.591   7.020 -0.4314  0.2359  1.6688
22395SOL    HW268627   3.297   1.606   7.088  0.7933 -1.9065 -0.1152
22396SOL     OW68628   3.548   2.542   3.658  0.3963 -0.1113 -0.1809
22396SOL    HW168629   3.593   2.607   3.713 -1.1946 -0.0113  1.0821
22396SOL    HW268630   3.475   2.591   3.620  1.4080 -0.2010 -2.4100
22397SOL     OW68631   7.598   7.706  11.785  0.0814  0.2103  0.0417
22397SOL    HW168632   7.503   7.716  11.778  0.0406  0.6601  1.0625
22397SOL    HW268633   7.611   7.622  11.829  0.1093  0.7806  1.1378
22398SOL     OW68634   5.888   7.589   9.572 -0.0772 -0.3501 -0.0668
22398SOL    HW168635   5.911   7.665   9.627  0.0337 -0.4580  0.0355
22398SOL    HW268636   5.880   7.626   9.484 -3.4228  0.4733  0.4405
22399SOL     OW68637   3.676   7.804   8.192 -0.2958  0.1690  0.0224
22399SOL    HW168638   3.689   7.884   8.142  0.7585 -1.5175 -2.6410
22399SOL    HW268639   3.656   7.737   8.126 -1.8933 -1.6417  2.1893
22400SOL     OW68640   1.815   5.488   6.136  0.1639 -0.5990 -0.4292
22400SOL    HW168641   1.902   5.453   6.120  0.7019  0.1622  0.7185
22400SOL    HW268642   1.821   5.530   6.221 -1.7030 -1.7341  0.3246
22401SOL     OW68643   7.965   6.241   1.351  0.6331 -0.3438  0.1608
22401SOL    HW168644   7.890   6.232   1.292 -0.2598 -1.2452  1.3671
22401SOL    HW268645   7.970   6.157   1.397  1.9834 -0.0633  0.5882
22402SOL     OW68646   7.971   5.387  11.174  0.2578  0.6355  0.1459
22402SOL    HW168647   8.066   5.383  11.162  0.1897  0.9529 -0.5565
22402SOL    HW268648   7.937   5.324  11.111 -0.0187  0.7921  0.1404
22403SOL     OW68649   2.100   4.338   4.649 -0.0305 -0.6124  0.2724
22403SOL    HW168650   2.123   4.315   4.559  0.2073  0.3075  0.0952
22403SOL    HW268651   2.025   4.282   4.669 -0.1006 -0.8065 -0.4970
22404SOL     OW68652   3.025   1.313   2.845 -0.6658  0.3407  0.1847
22404SOL    HW168653   3.002   1.232   2.799 -3.4053  1.3774 -0.5172
22404SOL    HW268654   3.110   1.338   2.810 -1.0166 -0.8221 -1.6051
22405SOL     OW68655   1.001   2.160   2.777 -0.4364 -0.5828  0.4759
22405SOL    HW168656   1.071   2.151   2.712  0.0230  0.6650  0.7695
22405SOL    HW268657   1.044   2.140   2.860 -0.9141 -1.7193  0.4715
22406SOL     OW68658   4.222   2.800  11.014 -0.7680  0.3711 -0.0309
22406SOL    HW168659   4.217   2.799  10.918  1.9990  0.8288 -0.2551
22406SOL    HW268660   4.268   2.719  11.037 -0.3446  0.8389  0.8097
22407SOL     OW68661   5.189   2.768   8.465 -0.0720 -0.1525  0.2332
22407SOL    HW168662   5.215   2.853   8.500 -1.3025  0.4802 -0.3044
22407SOL    HW268663   5.158   2.719   8.541 -1.7217  0.8227  0.2504
22408SOL     OW68664   6.510   7.434   5.426  0.3730  0.4120  0.0859
22408SOL    HW168665   6.516   7.435   5.522  0.2309  0.6381  0.0919
22408SOL    HW268666   6.431   7.485   5.406 -1.5866 -2.4547 -0.0157
22409SOL     OW68667   2.755   7.934   0.229 -0.2930 -0.2240  0.0479
22409SOL    HW168668   2.831   7.889   0.192 -0.9907  0.4026 -2.3414
22409SOL    HW268669   2.684   7.871   0.223 -1.1614  0.8769 -2.8704
22410SOL     OW68670   2.522   5.241   9.047  0.0946 -0.4855  0.2166
22410SOL    HW168671   2.616   5.238   9.030  0.0300  0.0835 -0.2920
22410SOL    HW268672   2.509   5.321   9.097 -0.3560  0.5353 -1.4509
22411SOL     OW68673   5.784   0.105   4.704 -0.0442  0.4031 -0.0492
22411SOL    HW168674   5.756   0.016   4.723 -1.0336  0.9028  0.9435
22411SOL    HW268675   5.729   0.160   4.759 -0.5386  1.7304 -1.7852
22412SOL     OW68676   2.158   6.064   3.108  0.3930  0.0895 -0.6143
22412SOL    HW168677   2.142   6.157   3.125  2.2235  0.3000  0.1103
22412SOL    HW268678   2.207   6.062   3.026  0.4925 -0.2197 -0.5500
22413SOL     OW68679   7.164   5.992   2.930 -0.5277  0.1449  0.0570
22413SOL    HW168680   7.170   6.069   2.987  0.2621  0.2783 -0.1845
22413SOL    HW268681   7.070   5.974   2.923 -0.7290  1.1472  0.0463
22414SOL     OW68682   0.529   2.536   9.756 -0.0943  0.0616 -0.0991
22414SOL    HW168683   0.577   2.454   9.764  0.1805  0.2240 -0.0323
22414SOL    HW268684   0.557   2.587   9.833 -1.2231 -0.2647  0.5395
22415SOL     OW68685   1.789   6.331  11.664 -0.3054 -0.0818 -0.0824
22415SOL    HW168686   1.744   6.404  11.621  0.7852  0.7961  0.2300
22415SOL    HW268687   1.853   6.301  11.600 -0.8201 -0.8467 -0.2483
22416SOL     OW68688   2.417   5.053   5.402  0.1987  0.1420  0.1672
22416SOL    HW168689   2.400   4.991   5.331 -2.1066  0.1953  0.5760
22416SOL    HW268690   2.453   4.999   5.473  0.8588 -0.2150 -0.4236
22417SOL     OW68691   4.704   0.363   9.956 -0.0000  0.1155 -0.6346
22417SOL    HW168692   4.681   0.323   9.872  0.1507 -0.6789 -0.3061
22417SOL    HW268693   4.775   0.424   9.935  0.9153 -1.0031 -0.9116
22418SOL     OW68694   0.896   6.361  11.121  0.0507 -0.2002 -0.4349
22418SOL    HW168695   0.827   6.410  11.165 -0.5411  0.5865 -2.1391
22418SOL    HW268696   0.960   6.427  11.094  0.5226 -0.6914 -0.5618
22419SOL     OW68697   7.233   7.538   8.656  0.5989 -0.3733  0.2013
22419SOL    HW168698   7.298   7.579   8.713  1.3982 -0.1294 -0.8538
22419SOL    HW268699   7.182   7.611   8.620 -0.1945 -0.5537  0.9168
22420SOL     OW68700   3.817   2.675   1.427  0.1046 -0.1699 -0.3155
22420SOL    HW168701   3.776   2.606   1.375  0.6888 -0.0535 -0.9459
22420SOL    HW268702   3.747   2.705   1.486 -0.6827 -0.0715 -1.2680
22421SOL     OW68703   3.571   2.085  10.006 -0.3736 -0.8444 -0.3178
22421SOL    HW168704   3.518   2.158   9.974  1.2128  0.4035 -0.2498
22421SOL    HW268705   3.534   2.008   9.963 -1.3641  0.1549 -1.3224
22422SOL     OW68706   4.742   2.379   2.502 -0.2984  0.5274  0.2100
22422SOL    HW168707   4.834   2.405   2.503 -0.8884  2.7452  0.1929
22422SOL    HW268708   4.740   2.299   2.449  1.6906  0.0407  0.7986
22423SOL     OW68709   6.340   6.265  11.188 -0.6121 -0.3669  0.5209
22423SOL    HW168710   6.279   6.336  11.173  0.9850  1.1276  0.8058
22423SOL    HW268711   6.396   6.296  11.259 -0.0420 -2.0316  0.8461
22424SOL     OW68712   0.680   3.756  10.250 -0.8314 -0.2852 -0.2821
22424SOL    HW168713   0.655   3.842  10.283 -2.4656 -0.9472  0.2891
22424SOL    HW268714   0.627   3.744  10.171  0.0703 -0.4119 -0.8892
22425SOL     OW68715   7.056   7.565   5.801 -0.2616  0.4301  0.1955
22425SOL    HW168716   7.051   7.487   5.745  0.3686  1.1922 -0.9628
22425SOL    HW268717   7.147   7.594   5.794 -0.0515  0.3112  1.9847
22426SOL     OW68718   7.020   0.705   0.933  0.1807 -0.2356 -0.4669
22426SOL    HW168719   6.978   0.760   0.867 -1.7052 -0.0882  0.7857
22426SOL    HW268720   7.105   0.684   0.895  0.3528  2.2378 -1.6575
22427SOL     OW68721   7.283   2.930   5.650  0.1699  0.3104  0.1693
22427SOL    HW168722   7.269   2.864   5.718 -0.9423 -0.3258 -0.6334
22427SOL    HW268723   7.211   2.993   5.663  0.0315  0.2565 -0.3186
22428SOL     OW68724   7.198   3.980  11.370 -0.3817  0.4625 -0.3406
22428SOL    HW168725   7.236   3.937  11.446 -0.0625  0.9142 -0.2444
22428SOL    HW268726   7.256   4.054  11.352 -0.2627  0.1641 -1.2290
22429SOL     OW68727   4.343   6.737   8.733 -0.3521  0.0754 -0.1768
22429SOL    HW168728   4.303   6.652   8.751 -0.8692  0.4900  0.7592
22429SOL    HW268729   4.304   6.795   8.799  0.5395  0.8734 -0.3401
22430SOL     OW68730   5.646   5.497  12.448 -0.2980  0.0078 -0.0601
22430SOL    HW168731   5.588   5.553  12.397 -0.0100  1.0896  0.7590
22430SOL    HW268732   5.620   5.512  12.539  0.4721 -0.4091  0.2359
22431SOL     OW68733   2.143   6.731   2.074  0.1248  0.3194 -0.3911
22431SOL    HW168734   2.143   6.803   2.011 -1.8065  0.7399  0.0287
22431SOL    HW268735   2.178   6.657   2.026 -0.1896  0.9279 -1.5939
22432SOL     OW68736   2.985   0.687   4.823  0.2840  0.1522 -0.4268
22432SOL    HW168737   2.899   0.676   4.863 -0.1610 -0.7785 -1.5775
22432SOL    HW268738   3.045   0.700   4.897 -0.9867  1.9552  0.3304
22433SOL     OW68739   6.460   0.333  11.657  0.0127 -0.0938  0.8269
22433SOL    HW168740   6.454   0.341  11.562  0.7002 -0.2811  0.7626
22433SOL    HW268741   6.503   0.414  11.685 -0.2440 -0.0126  0.9849
22434SOL     OW68742   2.960   2.307   3.859  0.2639  0.3483 -0.0918
22434SOL    HW168743   2.916   2.225   3.880 -0.6529  0.7048 -0.5431
22434SOL    HW268744   2.965   2.308   3.764 -0.4159  1.1361 -0.1399
22435SOL     OW68745   2.169   5.116   9.751  0.0960  0.2167  0.2115
22435SOL    HW168746   2.105   5.147   9.687  0.0431  0.9559  0.6204
22435SOL    HW268747   2.234   5.069   9.698  0.3188  1.2409 -0.4624
22436SOL     OW68748   4.221   7.045   1.101 -0.6857 -0.4178  0.1951
22436SOL    HW168749   4.195   6.959   1.134 -0.8607 -0.0585  1.0247
22436SOL    HW268750   4.141   7.080   1.061 -0.2155 -1.2814 -1.6194
22437SOL     OW68751   6.725   5.041   9.407 -0.1314  0.2441  0.1024
22437SOL    HW168752   6.726   5.124   9.455 -2.1947  1.3963 -1.6614
22437SOL    HW268753   6.637   5.036   9.370  0.2469 -2.2975 -0.6295
22438SOL     OW68754   6.122   5.928   5.915  0.4913 -0.4724  0.2896
22438SOL    HW168755   6.183   5.868   5.959  1.1072 -0.6823 -0.8054
22438SOL    HW268756   6.121   6.006   5.971  0.8656 -0.9269  0.9396
22439SOL     OW68757   2.256   7.337  11.997  0.0516 -0.1240 -0.0341
22439SOL    HW168758   2.232   7.245  11.995 -1.1046  0.0925  1.7706
22439SOL    HW268759   2.181   7.383  11.958  0.1848  0.1173 -0.0131
22440SOL     OW68760   2.875   1.661   6.456  0.0994 -0.1333  0.0026
22440SOL    HW168761   2.864   1.682   6.549 -1.1335 -1.9406  0.3365
22440SOL    HW268762   2.797   1.698   6.414  0.8115  0.9560 -0.3888
22441SOL     OW68763   4.419   0.439   1.678  0.1606 -0.0272 -0.1180
22441SOL    HW168764   4.472   0.449   1.598  0.2701 -0.5098 -0.1102
22441SOL    HW268765   4.331   0.464   1.651 -0.0086 -1.1199 -0.6597
22442SOL     OW68766   5.931   1.411   7.439 -0.2909 -0.5529 -0.1205
22442SOL    HW168767   5.920   1.317   7.429 -0.8170 -0.4087 -0.9977
22442SOL    HW268768   5.985   1.421   7.517  0.1333 -1.5908 -0.2724
22443SOL     OW68769   1.885   3.739   5.499 -0.3219 -0.0545 -0.4774
22443SOL    HW168770   1.968   3.730   5.453  0.8533 -0.1808  1.5625
22443SOL    HW268771   1.885   3.830   5.530  0.7787 -0.9962  2.5585
22444SOL     OW68772   2.407   7.663  11.592 -0.4138  0.1486  0.1203
22444SOL    HW168773   2.405   7.615  11.674  0.6146  0.7788  0.5212
22444SOL    HW268774   2.318   7.653  11.556 -0.7090 -0.5732  1.0363
22445SOL     OW68775   4.295   6.550   8.942  0.0303  0.1756 -0.2152
22445SOL    HW168776   4.317   6.457   8.952 -0.4443  0.0084 -0.6179
22445SOL    HW268777   4.212   6.560   8.989 -0.7541  0.0122 -1.4909
22446SOL     OW68778   7.018   1.133   0.973 -0.0758 -1.0027 -0.7724
22446SOL    HW168779   6.954   1.167   1.036  1.8254  1.3356  0.0265
22446SOL    HW268780   7.053   1.054   1.015 -0.6335 -0.8974 -0.0850
22447SOL     OW68781   4.772   1.886   5.883  0.2672  0.5524  0.4063
22447SOL    HW168782   4.769   1.792   5.901  2.0479  0.6579  1.5072
22447SOL    HW268783   4.770   1.892   5.787  0.1929 -0.6038  0.3206
22448SOL     OW68784   5.517   7.868  10.784 -0.2256 -0.0506 -0.2194
22448SOL    HW168785   5.595   7.898  10.738  0.5413 -0.4635  0.7596
22448SOL    HW268786   5.496   7.784  10.744 -0.4600  0.2862 -0.8100
22449SOL     OW68787   3.844   6.637   5.938  0.5718 -0.5577 -0.2398
22449SOL    HW168788   3.870   6.712   5.992 -2.5393 -0.6657  1.6244
22449SOL    HW268789   3.882   6.561   5.982 -2.3446 -0.7015  2.3320
22450SOL     OW68790   3.608   2.263   1.939  0.4201 -0.5672  0.3158
22450SOL    HW168791   3.591   2.356   1.925 -0.3704 -0.4536  1.8090
22450SOL    HW268792   3.687   2.245   1.888  1.5247  1.3140  1.2237
22451SOL     OW68793   5.066   3.016   6.483  0.4668  0.2140 -0.1407
22451SOL    HW168794   5.103   3.070   6.413  2.7853 -1.5836 -0.4258
22451SOL    HW268795   5.114   3.042   6.561  0.2937 -0.1462  0.0852
22452SOL     OW68796   1.064   7.877   6.287 -0.5252  0.4215  0.0622
22452SOL    HW168797   1.147   7.889   6.241 -0.9275  0.9652 -0.5340
22452SOL    HW268798   1.036   7.789   6.263 -0.5098  0.5333 -0.3573
22453SOL     OW68799   6.266   2.081   8.870 -0.1082 -0.2118  0.2474
22453SOL    HW168800   6.291   2.135   8.795  0.6957 -0.0857  0.5908
22453SOL    HW268801   6.276   1.991   8.838  1.1788 -0.1756  0.4682
22454SOL     OW68802   7.292   6.003   5.679 -0.2578 -0.4228 -0.1101
22454SOL    HW168803   7.309   5.911   5.702 -0.2227 -0.2617  0.5211
22454SOL    HW268804   7.364   6.027   5.621 -0.2068 -0.7631 -0.1887
22455SOL     OW68805   5.943   6.839   6.179 -0.2423  0.0057  0.3397
22455SOL    HW168806   6.012   6.841   6.112 -2.1486  0.9407 -1.7457
22455SOL    HW268807   5.972   6.902   6.244  3.1301 -3.0148  2.1611
22456SOL     OW68808   0.862   0.484   8.327  0.6566 -0.0870  0.3547
22456SOL    HW168809   0.775   0.514   8.354  0.0422  0.2435 -1.8093
22456SOL    HW268810   0.853   0.389   8.320  0.8029 -0.1700  1.1635
22457SOL     OW68811   1.083   1.747   3.742  0.1622 -0.0970  0.3360
22457SOL    HW168812   1.026   1.823   3.747  1.9381  1.2983  0.3806
22457SOL    HW268813   1.039   1.688   3.681 -0.6873  1.4826 -0.6397
22458SOL     OW68814   5.874   0.989   1.507  0.0732 -0.0239 -0.3930
22458SOL    HW168815   5.906   1.030   1.427 -0.0989 -2.0264 -1.5730
22458SOL    HW268816   5.785   0.959   1.484  0.2491 -1.1488  0.3305
22459SOL     OW68817   3.027   4.415   5.489 -0.2350  0.2054  0.5905
22459SOL    HW168818   2.946   4.458   5.463 -1.0904  0.3274  3.1595
22459SOL    HW268819   3.014   4.323   5.466 -0.6989  0.3839  0.1246
22460SOL     OW68820   3.357   2.879   3.142 -0.0966  0.5884 -0.2693
22460SOL    HW168821   3.300   2.953   3.162 -0.2638  0.0006  1.6273
22460SOL    HW268822   3.405   2.906   3.064 -0.0162  2.7785  0.4700
22461SOL     OW68823   2.360   1.107   5.667  0.7161  0.3748 -0.8914
22461SOL    HW168824   2.398   1.033   5.620 -0.1843 -0.1512 -0.8131
22461SOL    HW268825   2.302   1.149   5.604 -0.0739 -0.0044 -0.4393
22462SOL     OW68826   3.823   5.802   6.536 -0.5260  0.0843  0.6180
22462SOL    HW168827   3.787   5.760   6.458 -0.7127  0.1501  0.6665
22462SOL    HW268828   3.811   5.738   6.606  0.2389 -0.2361  0.4675
22463SOL     OW68829   6.971   5.528   9.140 -0.1453 -0.6086  0.2034
22463SOL    HW168830   6.982   5.623   9.145 -0.3547 -0.5544 -0.3276
22463SOL    HW268831   6.893   5.510   9.192  0.3346 -0.5851  0.9500
22464SOL     OW68832   0.378   6.827   5.159 -0.0669 -0.0512  0.0708
22464SOL    HW168833   0.379   6.733   5.173  0.5115  0.1722  1.8257
22464SOL    HW268834   0.452   6.844   5.101 -0.1014 -0.6631 -0.1504
22465SOL     OW68835   3.242   3.450   0.201 -0.0623 -0.2948 -0.1698
22465SOL    HW168836   3.244   3.361   0.236  0.2410  0.0132  0.6216
22465SOL    HW268837   3.185   3.498   0.261  2.4710  0.8642  1.5135
22466SOL     OW68838   5.875   1.112   1.264  0.3423 -0.1690  0.0515
22466SOL    HW168839   5.945   1.175   1.250  0.2194  0.2139  1.0205
22466SOL    HW268840   5.877   1.056   1.187  0.2772  1.1792 -0.9710
22467SOL     OW68841   5.141   3.843  12.370 -0.4390 -0.0276  0.3142
22467SOL    HW168842   5.102   3.909  12.313  1.3102 -0.9875 -2.1591
22467SOL    HW268843   5.235   3.849  12.353 -0.1780 -2.7677  0.4102
22468SOL     OW68844   2.267   1.205   7.570  0.3618  0.6104  0.1936
22468SOL    HW168845   2.183   1.250   7.580  0.6730  1.0493  0.9253
22468SOL    HW268846   2.316   1.229   7.649  0.7320 -0.5849  0.3455
22469SOL     OW68847   6.816   5.011   4.836 -0.3024  0.3104 -0.1118
22469SOL    HW168848   6.731   5.052   4.817 -0.8831 -0.8435 -0.1042
22469SOL    HW268849   6.814   4.998   4.931 -0.9661 -1.4551 -0.3286
22470SOL     OW68850   7.132   1.828   4.452  0.3701  0.0099  0.9425
22470SOL    HW168851   7.071   1.842   4.379  0.2441  0.7574  1.1852
22470SOL    HW268852   7.079   1.839   4.530  1.1049  2.2068  1.1838
22471SOL     OW68853   0.558   6.842   4.954  0.5125  0.1705 -0.3373
22471SOL    HW168854   0.634   6.881   4.910 -1.3287  0.5158 -3.5134
22471SOL    HW268855   0.522   6.781   4.890 -2.3439  0.6411  0.6806
22472SOL     OW68856   6.952   7.967  10.931  0.3348  0.6573  0.8870
22472SOL    HW168857   6.995   7.881  10.924 -0.1931  0.4716 -0.4550
22472SOL    HW268858   6.893   7.958  11.006  0.2316 -0.1819  0.7171
22473SOL     OW68859   1.867   0.735   0.764 -0.0496 -0.0605 -0.4634
22473SOL    HW168860   1.881   0.663   0.826  0.3819 -0.0283 -0.5188
22473SOL    HW268861   1.858   0.813   0.819  0.2161 -0.0493 -0.4338
22474SOL     OW68862   0.227   5.670   3.377 -0.8368 -0.4319  0.1991
22474SOL    HW168863   0.177   5.711   3.448 -2.0121  2.5694 -2.1487
22474SOL    HW268864   0.169   5.601   3.345 -2.0749  0.7517 -0.2548
22475SOL     OW68865   3.458   6.800   2.142 -0.3130  0.0281  0.5962
22475SOL    HW168866   3.394   6.839   2.082 -1.1442 -1.0838  0.7352
22475SOL    HW268867   3.406   6.768   2.215  0.7134  1.6747  2.1473
22476SOL     OW68868   2.646   6.522   3.302  0.2613 -0.0455  0.4149
22476SOL    HW168869   2.684   6.527   3.390 -1.7589  1.4333  1.2689
22476SOL    HW268870   2.627   6.613   3.279  0.8505 -0.3989 -1.6404
22477SOL     OW68871   2.856   2.004   2.469  0.3530  0.2333  0.2047
22477SOL    HW168872   2.789   1.936   2.459  0.0740  0.6727 -1.0123
22477SOL    HW268873   2.834   2.069   2.403  1.9935  0.3923 -0.2107
22478SOL     OW68874   2.800   6.634   5.295 -0.2465 -0.1945 -0.2712
22478SOL    HW168875   2.736   6.688   5.249 -1.0397  0.3588  1.4006
22478SOL    HW268876   2.756   6.551   5.312 -0.1293 -0.2217 -0.0913
22479SOL     OW68877   3.700   3.614   0.235 -0.2169 -0.2742  0.1122
22479SOL    HW168878   3.670   3.613   0.326 -1.1172  0.8070 -0.1538
22479SOL    HW268879   3.638   3.559   0.188 -1.3744  1.2978 -0.2901
22480SOL     OW68880   5.567   7.468   4.598 -0.1809  0.1734  0.0435
22480SOL    HW168881   5.577   7.376   4.621  0.2490  0.0333 -0.6564
22480SOL    HW268882   5.586   7.515   4.679  0.4098 -0.3287  0.2069
22481SOL     OW68883   4.607   5.045   3.134 -0.1299  0.3943  0.4141
22481SOL    HW168884   4.631   5.128   3.094 -0.0216 -0.4022 -1.2289
22481SOL    HW268885   4.688   4.994   3.136 -0.2567  0.2023  1.1496
22482SOL     OW68886   2.680   3.595   1.233 -0.1411 -0.9800  0.6556
22482SOL    HW168887   2.681   3.682   1.274 -1.1781 -1.1288  1.0482
22482SOL    HW268888   2.728   3.606   1.152 -1.3387  0.3082  0.0658
22483SOL     OW68889   0.578   6.338   0.569 -0.2698 -0.5830 -0.6810
22483SOL    HW168890   0.565   6.258   0.518  0.6332 -0.3500 -1.3140
22483SOL    HW268891   0.673   6.344   0.578 -0.4036 -0.9009  1.5200
22484SOL     OW68892   2.731   6.208   0.390 -0.4144 -0.4431  0.5189
22484SOL    HW168893   2.785   6.287   0.399  0.7881 -1.1757 -0.0457
22484SOL    HW268894   2.658   6.235   0.335  1.0380 -0.1877 -1.3641
22485SOL     OW68895   6.428   2.755   8.481  0.2383  0.1948 -0.0567
22485SOL    HW168896   6.473   2.674   8.457 -1.0817 -0.9088  1.0367
22485SOL    HW268897   6.498   2.819   8.493  1.3813 -1.0385  0.0362
22486SOL     OW68898   0.010   7.270   6.200 -0.2494  0.0502 -0.4198
22486SOL    HW168899  -0.018   7.271   6.291  0.2081 -0.5066 -0.2672
22486SOL    HW268900   0.007   7.362   6.173  0.8622  0.3939  0.5513
22487SOL     OW68901   0.046   5.815   9.678  0.0110 -0.2552 -0.1088
22487SOL    HW168902  -0.033   5.768   9.706  1.2715 -1.7099  1.1785
22487SOL    HW268903   0.115   5.782   9.735  1.6801  0.5717 -1.5640
22488SOL     OW68904   6.661   7.215   9.562  0.2894  0.2437  0.3526
22488SOL    HW168905   6.576   7.211   9.605  0.1533  2.8074  0.5001
22488SOL    HW268906   6.647   7.176   9.476 -0.9593  0.3673  0.4841
22489SOL     OW68907   0.180   0.807   0.737  0.1317  0.3287 -0.0446
22489SOL    HW168908   0.150   0.729   0.691  2.3854 -2.1278  2.2392
22489SOL    HW268909   0.248   0.844   0.681  0.2322 -0.3591 -0.3856
22490SOL     OW68910   5.487   1.592   8.645  0.0031  0.3302 -0.6930
22490SOL    HW168911   5.456   1.665   8.591 -0.5645 -0.2379 -1.1395
22490SOL    HW268912   5.409   1.540   8.663  0.2398  0.3361  0.4131
22491SOL     OW68913   3.030   1.026   0.391 -0.0297 -0.1467  0.5705
22491SOL    HW168914   2.973   0.987   0.325  0.3355 -1.2438  0.8851
22491SOL    HW268915   2.971   1.052   0.462 -0.2876 -0.0251  0.3121
22492SOL     OW68916   7.106   3.863  10.322  0.1004  0.4235  0.7032
22492SOL    HW168917   7.090   3.820  10.238 -0.0848  1.1798  0.3358
22492SOL    HW268918   7.164   3.804  10.370  0.6577  0.2460 -0.1771
22493SOL     OW68919   6.121   0.615   6.190  0.7560 -0.0336  0.1532
22493SOL    HW168920   6.178   0.642   6.262  0.8554 -1.1517  0.5180
22493SOL    HW268921   6.176   0.559   6.135 -0.2935 -2.2945  1.2558
22494SOL     OW68922   4.579   1.887   8.840 -0.6487 -0.2175 -0.0958
22494SOL    HW168923   4.560   1.800   8.803 -0.9074 -0.2559  0.1201
22494SOL    HW268924   4.542   1.884   8.928 -0.9913  0.2382 -0.2197
22495SOL     OW68925   6.552   4.679   6.805 -0.9272  0.3425  0.1389
22495SOL    HW168926   6.597   4.758   6.833  0.7475 -0.1594 -1.0077
22495SOL    HW268927   6.604   4.607   6.841 -1.9939 -0.2765  0.5194
22496SOL     OW68928   7.093   1.931  12.225  0.1696  0.2661 -0.1719
22496SOL    HW168929   7.148   1.860  12.193 -1.1354 -0.3328 -1.1978
22496SOL    HW268930   7.028   1.944  12.156  0.3498  2.4594 -0.0055
22497SOL     OW68931   2.391   4.693   9.138 -0.2130 -0.0996  0.0241
22497SOL    HW168932   2.300   4.702   9.107 -0.5556  0.7521  1.2275
22497SOL    HW268933   2.430   4.630   9.078 -1.1254  0.7619 -1.5591
22498SOL     OW68934   4.640   0.648   0.369 -0.0893 -0.3563 -0.4534
22498SOL    HW168935   4.670   0.591   0.298 -0.2967 -0.1020 -0.7538
22498SOL    HW268936   4.718   0.663   0.423 -0.4456 -2.4298  0.7045
22499SOL     OW68937   1.104   4.987  12.304  0.1953 -0.0347  0.3198
22499SOL    HW168938   1.078   4.907  12.258 -0.2441 -0.5012  1.3265
22499SOL    HW268939   1.021   5.033  12.320  0.4397  0.5844 -0.1838
22500SOL     OW68940   0.908   1.004  12.238 -0.1400  0.1363  0.5098
22500SOL    HW168941   1.002   1.024  12.232  0.3276 -1.6036  1.2898
22500SOL    HW268942   0.898   0.963  12.324 -1.1194 -2.0884 -0.5917
22501SOL     OW68943   6.924   4.408   0.063 -0.0308  0.1088 -0.7429
22501SOL    HW168944   6.854   4.430   0.002 -1.3937  2.1338  1.3931
22501SOL    HW268945   6.896   4.326   0.104 -0.1497 -0.1291 -1.2931
22502SOL     OW68946   6.026   1.731   3.241  0.1147  0.3018  0.3616
22502SOL    HW168947   5.973   1.720   3.161  0.6997 -0.9135  0.1167
22502SOL    HW268948   6.027   1.825   3.256 -2.9962  0.3435  0.9708
22503SOL     OW68949   4.126   4.154   2.134 -0.2922  0.1196 -0.0057
22503SOL    HW168950   4.217   4.177   2.116 -0.7838  0.3607 -2.5288
22503SOL    HW268951   4.124   4.058   2.129 -0.4025  0.1723 -1.4655
22504SOL     OW68952   7.033   1.285   7.020  0.3079 -0.2587  0.2543
22504SOL    HW168953   7.092   1.324   6.955  1.1298  0.6732  1.5057
22504SOL    HW268954   7.090   1.230   7.074 -0.1035  0.0809  1.0458
22505SOL     OW68955   1.376   4.445   3.125 -0.1562  0.2185  0.0857
22505SOL    HW168956   1.457   4.496   3.121  0.4717 -0.6418  1.1299
22505SOL    HW268957   1.401   4.357   3.098 -0.9661  0.1740 -0.5421
22506SOL     OW68958   3.386   5.156   6.785  0.5745 -0.0587 -0.1625
22506SOL    HW168959   3.351   5.239   6.754  3.4009  1.5231  0.5375
22506SOL    HW268960   3.401   5.105   6.705 -1.7658 -0.2498 -0.5532
22507SOL     OW68961   6.496   6.537   6.731 -0.5520  0.1298 -0.0267
22507SOL    HW168962   6.517   6.580   6.814 -0.2611  1.4803 -0.7733
22507SOL    HW268963   6.501   6.607   6.665  1.8571 -1.3688 -1.6026
22508SOL     OW68964   6.741   1.313   6.093  0.4581  0.1321 -0.2536
22508SOL    HW168965   6.777   1.346   6.010 -0.2128  1.9326  0.1142
22508SOL    HW268966   6.813   1.326   6.156  0.3664  0.4543 -0.2115
22509SOL     OW68967   5.959   7.695  10.029  0.0074 -0.2206 -0.6191
22509SOL    HW168968   6.031   7.746   9.990 -0.6873  0.6879 -0.7261
22509SOL    HW268969   5.882   7.751  10.020 -0.2199 -0.0022  1.9830
22510SOL     OW68970   3.673   7.456   1.258  0.4599  0.7689  0.1605
22510SOL    HW168971   3.661   7.458   1.353 -0.2514  0.4553  0.0874
22510SOL    HW268972   3.755   7.409   1.245 -0.0751 -0.3181  0.5809
22511SOL     OW68973   3.935   7.880  11.398  0.5538 -0.3368  0.3041
22511SOL    HW168974   3.963   7.959  11.351 -0.8955  0.3374  0.5039
22511SOL    HW268975   3.985   7.882  11.480  0.5094  0.4018  0.3242
22512SOL     OW68976   2.830   3.600   6.818 -0.1280  1.1448 -0.3973
22512SOL    HW168977   2.853   3.508   6.804 -0.4120  0.4350  3.0060
22512SOL    HW268978   2.913   3.642   6.839 -0.0731  1.6368 -1.4912
22513SOL     OW68979   6.064   0.213   6.412  0.6633 -0.2220  0.0575
22513SOL    HW168980   6.159   0.213   6.419  0.6604  2.1109  1.1114
22513SOL    HW268981   6.046   0.170   6.329  2.5108 -2.3308  0.6537
22514SOL     OW68982   6.125   3.691  10.534  0.0868 -0.5000  0.2267
22514SOL    HW168983   6.080   3.630  10.592  3.8151 -1.7482  2.0931
22514SOL    HW268984   6.111   3.656  10.446 -1.8063 -1.2435  0.7805
22515SOL     OW68985   7.668   2.789   9.415  0.4572  0.5232 -0.4883
22515SOL    HW168986   7.672   2.698   9.386  0.2279  0.5999 -0.7713
22515SOL    HW268987   7.755   2.808   9.449 -0.0523 -0.4544  1.5689
22516SOL     OW68988   0.006   5.256   6.096 -0.0201 -0.1231 -0.2840
22516SOL    HW168989   0.052   5.332   6.132  0.7115  0.2983 -2.0133
22516SOL    HW268990   0.068   5.184   6.107  0.6840  0.2371 -1.6733
22517SOL     OW68991   3.123   4.875   2.706 -0.0897  0.1182 -0.1544
22517SOL    HW168992   3.146   4.867   2.799  0.6052  1.3415 -0.2031
22517SOL    HW268993   3.073   4.956   2.701 -1.4084 -0.6942 -0.6358
22518SOL     OW68994   6.389   7.971   5.725 -0.4544  0.2521 -0.6199
22518SOL    HW168995   6.379   7.883   5.688 -0.3242  0.7825 -2.0116
22518SOL    HW268996   6.464   8.007   5.678  0.3152  0.6508  0.8878
22519SOL     OW68997   6.228   6.748   8.193 -0.5186 -0.0256  0.3097
22519SOL    HW168998   6.252   6.801   8.117 -0.4775  1.2326  1.1820
22519SOL    HW268999   6.160   6.799   8.237 -0.7348 -0.8730  0.9765
22520SOL     OW69000   4.741   7.632   0.203  0.0595 -0.5594 -0.1477
22520SOL    HW169001   4.698   7.549   0.183 -1.5473  0.4438 -1.0479
22520SOL    HW269002   4.780   7.660   0.120 -0.1490 -0.0043 -0.0663
22521SOL     OW69003   7.978   5.805   7.630 -0.0687  0.3504 -0.0641
22521SOL    HW169004   7.928   5.813   7.711 -0.1222 -1.1875  0.0839
22521SOL    HW269005   7.925   5.747   7.575  0.1671  1.0492 -1.0607
22522SOL     OW69006   5.877   5.747   5.564 -0.1396 -0.2587  0.1294
22522SOL    HW169007   5.815   5.683   5.599 -0.3207 -1.0837 -1.5961
22522SOL    HW269008   5.891   5.808   5.637 -0.3203 -1.9672  1.6858
22523SOL     OW69009   0.180   3.998   4.982  0.0594  0.1286 -0.2383
22523SOL    HW169010   0.209   4.074   4.933 -0.4465  0.7734  0.4465
22523SOL    HW269011   0.126   4.033   5.052 -1.9884 -0.9666 -1.1544
22524SOL     OW69012   5.705   5.014   7.609 -0.3098 -0.0220  0.0894
22524SOL    HW169013   5.752   4.940   7.647  0.8578  0.0813 -1.0862
22524SOL    HW269014   5.632   4.974   7.562  0.2675 -0.4261 -0.4732
22525SOL     OW69015   1.780   3.368   0.739 -0.5620 -0.0141  0.0744
22525SOL    HW169016   1.768   3.280   0.705  0.6011 -0.0812 -0.1964
22525SOL    HW269017   1.695   3.391   0.777 -0.8150 -1.3279  0.3401
22526SOL     OW69018   5.600   0.620   2.584 -0.4181 -0.1054  0.5529
22526SOL    HW169019   5.516   0.636   2.627 -0.2820 -0.7994  1.0936
22526SOL    HW269020   5.609   0.691   2.521 -1.8118 -0.4805 -0.0962
22527SOL     OW69021   6.884   2.668   2.957  0.0744 -0.0439 -0.5038
22527SOL    HW169022   6.808   2.707   3.002 -0.3567 -1.9497  0.5350
22527SOL    HW269023   6.958   2.685   3.016  0.2097  0.6090 -0.8518
22528SOL     OW69024   2.803   1.786  11.561  0.1703  0.0018  0.3615
22528SOL    HW169025   2.890   1.757  11.589 -0.3937  0.5561  2.9005
22528SOL    HW269026   2.817   1.876  11.531  0.6068 -0.2386 -0.1903
22529SOL     OW69027   3.765   7.120  10.188  0.1843  0.4602  0.1000
22529SOL    HW169028   3.702   7.069  10.138 -0.4679  1.4240 -0.0879
22529SOL    HW269029   3.850   7.096  10.152 -0.3039  1.6785 -2.0257
22530SOL     OW69030   7.523   6.704  11.322  0.0917 -0.5455  0.6029
22530SOL    HW169031   7.559   6.667  11.403  0.8763 -0.1613  0.4359
22530SOL    HW269032   7.598   6.711  11.263  0.2262  2.2215  0.9614
22531SOL     OW69033   5.679   3.991   4.995 -0.3877  0.2470  0.1841
22531SOL    HW169034   5.773   4.008   5.003 -0.4106  0.6171 -0.2888
22531SOL    HW269035   5.667   3.905   5.036  0.2722 -0.1121 -0.3432
22532SOL     OW69036   4.275   2.818   6.311 -0.0745  0.2158 -0.4301
22532SOL    HW169037   4.188   2.856   6.322 -0.6119 -1.7614  4.2425
22532SOL    HW269038   4.333   2.894   6.304 -1.7216  1.7621  1.5410
22533SOL     OW69039   0.795   6.532   8.090  0.8021  0.2911 -0.2817
22533SOL    HW169040   0.801   6.620   8.128  0.9742  0.6310 -1.0664
22533SOL    HW269041   0.879   6.519   8.047  0.5142  0.0402 -0.7833
22534SOL     OW69042   7.842   1.455   9.252  0.0055 -0.1413  0.4147
22534SOL    HW169043   7.807   1.534   9.210  0.9154  0.6598  1.1080
22534SOL    HW269044   7.936   1.458   9.233 -0.3069 -2.8100 -2.3347
22535SOL     OW69045   3.152   3.554   5.688 -0.1958 -0.5307  0.0125
22535SOL    HW169046   3.236   3.588   5.719 -0.1090 -0.2916 -0.4852
22535SOL    HW269047   3.172   3.505   5.609 -0.5770 -0.1035 -0.3543
22536SOL     OW69048   0.376   7.515   3.002 -0.9169 -0.2875 -0.0824
22536SOL    HW169049   0.410   7.466   2.927  0.6398  0.7670 -0.1295
22536SOL    HW269050   0.283   7.495   3.004 -0.8532 -0.9513 -1.8447
22537SOL     OW69051   1.143   2.806  11.237 -0.1858 -0.1542 -0.2054
22537SOL    HW169052   1.164   2.762  11.154 -2.0916  1.2242 -1.5262
22537SOL    HW269053   1.211   2.873  11.246  0.1148 -0.4005 -0.5794
22538SOL     OW69054   7.339   1.933   8.834 -0.2080  0.0217 -0.2371
22538SOL    HW169055   7.428   1.931   8.868 -0.7832 -0.5037  1.2925
22538SOL    HW269056   7.283   1.935   8.911 -1.5178  2.1064 -1.1524
22539SOL     OW69057   1.495   0.239   5.764  0.5826 -0.3043 -0.0890
22539SOL    HW169058   1.451   0.321   5.788 -1.3534 -1.1288 -0.5708
22539SOL    HW269059   1.567   0.231   5.826  0.2267  1.2987  0.5665
22540SOL     OW69060   7.740   0.928   2.010  0.0524  0.1822 -0.1439
22540SOL    HW169061   7.820   0.956   1.965  1.8927 -1.1317  2.1153
22540SOL    HW269062   7.751   0.833   2.021 -1.0875  0.2099  1.5524
22541SOL     OW69063   4.802   7.903  11.208 -0.3155 -0.0112 -0.2575
22541SOL    HW169064   4.848   7.882  11.290  0.4122  0.1369 -0.6218
22541SOL    HW269065   4.868   7.889  11.140 -0.9165 -0.1297 -0.8193
22542SOL     OW69066   2.576   7.835   8.897  0.7227 -0.6807  0.1922
22542SOL    HW169067   2.508   7.899   8.878  0.5855 -0.8687  0.0498
22542SOL    HW269068   2.633   7.838   8.820  1.2435 -0.0557  0.5861
22543SOL     OW69069   2.182   5.525   1.827 -0.1506 -0.1282  0.5212
22543SOL    HW169070   2.275   5.536   1.848 -0.1013  1.5420 -0.3545
22543SOL    HW269071   2.151   5.615   1.811 -1.7810 -0.7098  0.2521
22544SOL     OW69072   3.355   2.768   7.361 -0.2462  0.1131  0.2222
22544SOL    HW169073   3.368   2.831   7.289  0.0858 -0.7051 -0.4436
22544SOL    HW269074   3.380   2.816   7.439  1.1700  0.4411 -0.4042
22545SOL     OW69075   3.748   0.443   9.016  0.0840 -0.0897 -0.2967
22545SOL    HW169076   3.682   0.513   9.019 -1.4269 -1.4878  1.5829
22545SOL    HW269077   3.757   0.415   9.107  0.8834 -2.1328 -0.9543
22546SOL     OW69078   7.558   6.519   9.931 -0.5876  0.4073  0.2611
22546SOL    HW169079   7.592   6.432   9.911 -0.7148  0.6620 -1.2188
22546SOL    HW269080   7.623   6.558   9.989 -0.3502 -0.5292  0.6427
22547SOL     OW69081   7.641   5.962   5.784  0.2477 -0.0546 -0.4135
22547SOL    HW169082   7.704   5.898   5.752  0.0945  0.7896 -2.5125
22547SOL    HW269083   7.556   5.933   5.750 -0.2070 -0.0523  0.6641
22548SOL     OW69084   7.203   3.803   2.136  0.0406 -0.3408 -0.1602
22548SOL    HW169085   7.260   3.798   2.059 -0.0350  1.4621 -0.3669
22548SOL    HW269086   7.115   3.816   2.100 -0.0486  0.1079  0.2152
22549SOL     OW69087   4.959   4.899   1.361  0.3507  0.2778 -0.1102
22549SOL    HW169088   5.002   4.982   1.339  2.4451 -0.5939  0.4351
22549SOL    HW269089   5.012   4.862   1.431 -1.7154 -0.6193  1.0711
22550SOL     OW69090   1.729   1.900   1.610  0.3670 -0.4394 -0.1465
22550SOL    HW169091   1.737   1.828   1.673  0.1587  0.5612  1.0788
22550SOL    HW269092   1.643   1.888   1.570 -0.5580  0.2404  1.5437
22551SOL     OW69093   7.685   6.609   2.424 -0.2001  0.1220 -0.3191
22551SOL    HW169094   7.746   6.538   2.442 -0.0712 -0.0831 -1.4730
22551SOL    HW269095   7.616   6.569   2.372 -0.4807  0.6932 -0.3982
22552SOL     OW69096   7.388   4.804   5.352 -0.6172  0.1306 -0.1938
22552SOL    HW169097   7.416   4.715   5.329 -0.3878 -0.3110  1.6989
22552SOL    HW269098   7.305   4.815   5.306  0.1133 -0.4338 -1.7367
22553SOL     OW69099   7.632   3.838   1.111 -0.0215 -0.0365  0.5031
22553SOL    HW169100   7.631   3.832   1.015  1.1677 -0.5505  0.4991
22553SOL    HW269101   7.548   3.876   1.134 -0.8926 -1.1840 -0.6662
22554SOL     OW69102   5.267   5.556   1.629 -0.2444 -0.6783  0.4346
22554SOL    HW169103   5.221   5.535   1.710  1.7646 -2.0166  1.2949
22554SOL    HW269104   5.218   5.511   1.561 -1.0781 -0.7913  1.0990
22555SOL     OW69105   2.642   2.174   7.213 -0.1133  0.6186 -0.5011
22555SOL    HW169106   2.644   2.123   7.294 -2.3442  3.6781  1.7493
22555SOL    HW269107   2.583   2.125   7.156  1.4839 -1.6031 -0.3744
22556SOL     OW69108   4.335   3.312   8.370 -0.4026 -0.1237  0.0403
22556SOL    HW169109   4.254   3.268   8.345 -0.1257 -0.7064  0.1504
22556SOL    HW269110   4.367   3.264   8.446  0.3285 -0.2500 -0.3326
22557SOL     OW69111   2.027   3.447   2.121  0.4564 -0.2622 -0.1406
22557SOL    HW169112   2.061   3.511   2.058  0.1296  0.5865  0.5288
22557SOL    HW269113   2.059   3.363   2.088 -0.0711  0.1007 -1.6935
22558SOL     OW69114   5.363   0.574   4.200  0.1319  0.3124 -0.6046
22558SOL    HW169115   5.443   0.609   4.160  2.3272 -3.5685 -0.1552
22558SOL    HW269116   5.365   0.481   4.180 -1.9899 -0.7404  3.1301
22559SOL     OW69117   1.703   4.528   5.779  0.0467 -0.7188 -0.6924
22559SOL    HW169118   1.788   4.491   5.801 -0.4456 -0.7961  1.2517
22559SOL    HW269119   1.703   4.615   5.819 -0.2658 -0.1151 -1.9252
22560SOL     OW69120   1.019   7.501   3.812 -0.2660 -0.2476  0.6683
22560SOL    HW169121   0.940   7.483   3.761 -0.2623  2.1135 -0.2932
22560SOL    HW269122   1.090   7.503   3.748 -0.1620  2.1244  0.7751
22561SOL     OW69123   5.713   3.340  11.762 -0.0723 -0.9346  0.4298
22561SOL    HW169124   5.638   3.335  11.822 -0.5833  0.2968 -0.0699
22561SOL    HW269125   5.786   3.367  11.818 -0.4426 -0.2683  0.6126
22562SOL     OW69126   4.294   6.279  11.027  0.8454 -0.3058  0.0403
22562SOL    HW169127   4.308   6.372  11.007 -0.9060 -0.1628 -0.7663
22562SOL    HW269128   4.340   6.232  10.958 -0.5502  0.0676 -1.2025
22563SOL     OW69129   2.521   1.635   4.190  0.3357 -0.1510 -0.6599
22563SOL    HW169130   2.447   1.628   4.129  0.3198  0.4085 -0.7153
22563SOL    HW269131   2.526   1.550   4.233  0.0639 -0.4033 -1.1242
22564SOL     OW69132   5.354   1.250   5.626 -0.6148  0.0496  0.1363
22564SOL    HW169133   5.421   1.293   5.572 -0.9808 -1.3983 -1.5790
22564SOL    HW269134   5.382   1.159   5.630 -0.4393  0.1420  2.7585
22565SOL     OW69135   3.961   2.703   4.731  0.2196 -0.0114  0.0553
22565SOL    HW169136   4.040   2.724   4.779  0.1957  2.7723 -0.9431
22565SOL    HW269137   3.958   2.767   4.660 -1.7358 -1.5114 -1.3491
22566SOL     OW69138   3.240   7.468   9.461 -0.0501 -0.4998 -0.2961
22566SOL    HW169139   3.289   7.400   9.415  2.9370  0.7254  0.7900
22566SOL    HW269140   3.269   7.550   9.421 -0.3808  0.3449  1.1115
22567SOL     OW69141   5.527   7.562   2.339  0.4747  0.3585  0.1303
22567SOL    HW169142   5.573   7.481   2.317 -0.2413  0.3084 -1.2420
22567SOL    HW269143   5.470   7.537   2.412  0.6126 -0.2555  0.0366
22568SOL     OW69144   1.204   2.715   8.454 -0.0072  0.0834  0.0366
22568SOL    HW169145   1.249   2.769   8.519  0.3424  1.0043 -0.9447
22568SOL    HW269146   1.114   2.749   8.454  0.1016  0.3756 -0.2646
22569SOL     OW69147   3.671   6.638   2.113  0.1376 -0.0637  0.1901
22569SOL    HW169148   3.600   6.694   2.146  1.6761 -0.0101  3.8723
22569SOL    HW269149   3.632   6.550   2.111 -0.8813  0.3827 -0.8840
22570SOL     OW69150   0.104   3.602   9.023  0.1562  0.0884 -0.2636
22570SOL    HW169151   0.136   3.642   9.104 -0.1929  1.9722 -1.0103
22570SOL    HW269152   0.068   3.675   8.973 -1.0181 -1.2714 -1.4736
22571SOL     OW69153   2.616   0.472   3.641  0.2382  0.1164  0.1242
22571SOL    HW169154   2.634   0.409   3.711 -1.0915  1.1831  1.5126
22571SOL    HW269155   2.521   0.469   3.630  0.3916  0.2289 -1.4269
22572SOL     OW69156   4.485   1.667   2.913  0.1658 -0.3354 -0.6317
22572SOL    HW169157   4.577   1.689   2.921 -0.0644  0.4839 -0.2271
22572SOL    HW269158   4.485   1.572   2.900  1.0243 -0.4444  0.0671
22573SOL     OW69159   1.034   3.225  11.588  0.1398 -0.2214  0.0085
22573SOL    HW169160   0.975   3.246  11.516 -1.4345 -1.2588  0.9427
22573SOL    HW269161   1.113   3.190  11.545 -0.8568 -1.0354 -1.2258
22574SOL     OW69162   3.120   1.683   4.354  0.4929  0.1761 -0.2631
22574SOL    HW169163   3.038   1.659   4.396  0.2611 -0.9176 -1.2712
22574SOL    HW269164   3.157   1.752   4.409 -0.5462 -0.1119  0.8235
22575SOL     OW69165   7.630   6.993   9.816  0.2815  0.3883 -0.3487
22575SOL    HW169166   7.599   7.084   9.825  1.8323  0.9097  0.0506
22575SOL    HW269167   7.686   6.979   9.892 -0.7933 -1.2995  0.1708
22576SOL     OW69168   5.860   1.025   3.261  0.1961 -0.0023 -0.0075
22576SOL    HW169169   5.850   0.934   3.289  1.1776 -0.0840  0.0986
22576SOL    HW269170   5.789   1.038   3.198  0.0817 -0.8581 -0.0712
22577SOL     OW69171   6.309   7.968   1.806 -0.1347  0.5224  0.2342
22577SOL    HW169172   6.256   7.997   1.731 -0.1352  1.3504  0.5385
22577SOL    HW269173   6.267   8.010   1.881  0.5211  0.5956  0.5614
22578SOL     OW69174   4.892   5.897   4.397  0.7582 -0.1496  0.0989
22578SOL    HW169175   4.920   5.847   4.473 -0.5935  1.0744  1.4438
22578SOL    HW269176   4.849   5.833   4.340 -2.2218 -0.3923  2.4247
22579SOL     OW69177   1.201   1.386   1.685 -0.7784  0.0652  0.0519
22579SOL    HW169178   1.235   1.296   1.689 -1.9081 -0.3259  1.7787
22579SOL    HW269179   1.116   1.378   1.642 -0.7144  0.3591 -0.1293
22580SOL     OW69180   0.291   4.279  12.283  0.0144 -0.6454 -0.2089
22580SOL    HW169181   0.303   4.190  12.315  0.1116 -0.6498 -0.2559
22580SOL    HW269182   0.335   4.280  12.198  1.3409 -0.1530  0.4529
22581SOL     OW69183   7.277   6.081  10.747 -0.3123  0.0665 -0.1148
22581SOL    HW169184   7.345   6.146  10.761 -1.5189  1.1769  0.8152
22581SOL    HW269185   7.295   6.013  10.811 -1.2800  1.4025  1.6673
22582SOL     OW69186   4.325   6.178   7.235  0.2530  0.2186  0.1060
22582SOL    HW169187   4.396   6.237   7.260 -1.0816  1.4331  1.2587
22582SOL    HW269188   4.246   6.220   7.270 -0.9027 -1.6811 -0.0832
22583SOL     OW69189   3.211   0.376   5.129  0.1637  0.1924 -0.6967
22583SOL    HW169190   3.275   0.315   5.164 -0.1628  0.2782  0.0727
22583SOL    HW269191   3.161   0.325   5.066 -0.0991 -0.3441 -0.0704
22584SOL     OW69192   6.823   2.355  10.746 -0.0857  0.1179 -0.3922
22584SOL    HW169193   6.879   2.383  10.819  1.6257 -0.1023 -1.5388
22584SOL    HW269194   6.766   2.430  10.729  1.2564  1.1734 -0.4469
22585SOL     OW69195   0.110   7.254   2.945 -0.3676  0.0688 -0.6645
22585SOL    HW169196   0.051   7.230   2.873 -0.5661 -0.6636 -0.2680
22585SOL    HW269197   0.052   7.277   3.017 -0.2146 -1.8864  0.1397
22586SOL     OW69198   1.592   5.794   1.870  0.3654  0.0783 -0.1490
22586SOL    HW169199   1.581   5.709   1.827 -0.0438 -0.6114  1.2526
22586SOL    HW269200   1.503   5.825   1.885  0.4002  2.3455 -3.4700
22587SOL     OW69201   0.031   5.220   4.990  0.0804  0.0686  0.1710
22587SOL    HW169202   0.035   5.138   5.039 -0.8699 -0.3904 -0.5033
22587SOL    HW269203   0.119   5.257   4.998  0.5696 -1.0955  0.3339
22588SOL     OW69204   5.933   6.020   4.661  0.1753 -0.4574 -0.3946
22588SOL    HW169205   6.004   5.965   4.693 -0.6209 -0.3444  1.8052
22588SOL    HW269206   5.854   5.968   4.676 -0.6464  1.3109  2.1488
22589SOL     OW69207   4.116   0.153   9.060 -0.6286 -0.4675 -0.0701
22589SOL    HW169208   4.160   0.072   9.033 -0.6815 -0.1917 -1.0167
22589SOL    HW269209   4.089   0.194   8.978 -2.4214 -0.4905  0.4682
22590SOL     OW69210   0.507   2.085   5.793 -0.1088 -0.3673 -0.3955
22590SOL    HW169211   0.490   2.119   5.705 -0.0758  0.8135  0.0396
22590SOL    HW269212   0.590   2.124   5.819  0.8941 -2.2537 -0.5850
22591SOL     OW69213   7.905   1.546   2.775  0.6150  0.0863  0.1035
22591SOL    HW169214   7.964   1.575   2.844  0.3409  0.8559  0.0298
22591SOL    HW269215   7.950   1.570   2.693  0.9674 -0.8762  0.0039
22592SOL     OW69216   2.496   5.934   6.351 -0.5967  0.1910 -0.3583
22592SOL    HW169217   2.530   5.903   6.267  0.6563  0.2387  0.1085
22592SOL    HW269218   2.566   5.914   6.414 -2.7093 -2.7652  1.2891
22593SOL     OW69219   4.554   2.179   6.873 -0.4046  0.0064 -0.6068
22593SOL    HW169220   4.539   2.265   6.912 -0.3256  1.1749 -2.9770
22593SOL    HW269221   4.471   2.157   6.830 -1.8150 -2.9852  3.0515
22594SOL     OW69222   0.935   6.018   0.923 -0.2029  0.4684  0.3148
22594SOL    HW169223   0.890   6.019   0.838 -1.2528  2.3503  0.8347
22594SOL    HW269224   0.870   6.052   0.985  0.7201 -0.3614  1.8018
22595SOL     OW69225   5.099   0.751  12.042 -0.0809  0.6475  0.2877
22595SOL    HW169226   5.151   0.831  12.043 -1.6060  1.6910  1.7983
22595SOL    HW269227   5.155   0.686  12.001  1.2704  2.4429 -0.8395
22596SOL     OW69228   2.850   4.875  11.338  0.1221 -0.2254 -0.3502
22596SOL    HW169229   2.809   4.809  11.394  0.0472 -0.0371 -0.1834
22596SOL    HW269230   2.928   4.903  11.386 -0.6501  0.8988  0.2854
22597SOL     OW69231   4.492   1.390   4.325  0.0791  0.9023  0.4966
22597SOL    HW169232   4.575   1.418   4.286  0.3962 -0.6293  0.0073
22597SOL    HW269233   4.432   1.381   4.251  0.1779 -0.2997  0.5367
22598SOL     OW69234   1.175   4.718   1.748  0.5127  0.0437  0.0500
22598SOL    HW169235   1.174   4.783   1.678 -1.3818 -1.8317 -1.8441
22598SOL    HW269236   1.268   4.699   1.762  0.9694  0.3599 -2.1666
22599SOL     OW69237   1.792   4.734   1.323  0.1570 -0.0534 -1.0922
22599SOL    HW169238   1.819   4.812   1.275  0.2968  0.5087 -0.1043
22599SOL    HW269239   1.701   4.751   1.348  0.2575 -0.1090 -0.6831
22600SOL     OW69240   7.478   6.244   4.242 -0.4022 -0.5809  0.4929
22600SOL    HW169241   7.518   6.292   4.314  2.9118  2.4372 -2.8746
22600SOL    HW269242   7.444   6.312   4.184 -2.7145 -2.8070 -1.0093
22601SOL     OW69243   2.402   6.463  12.383  0.6026  0.4002 -0.1481
22601SOL    HW169244   2.316   6.422  12.388  0.9413 -0.1593  1.8495
22601SOL    HW269245   2.462   6.391  12.365  1.2165 -0.2146  3.5030
22602SOL     OW69246   3.086   3.127   6.272  0.2490  0.0301  0.0847
22602SOL    HW169247   3.138   3.201   6.242 -0.7986  1.0971  0.8402
22602SOL    HW269248   3.078   3.140   6.367 -0.9176 -0.4159  0.0601
22603SOL     OW69249   5.197   6.206   1.756 -0.0413  0.2986  0.3611
22603SOL    HW169250   5.266   6.228   1.818  0.6622 -2.1388  0.5505
22603SOL    HW269251   5.117   6.239   1.797  0.5495 -0.2326  2.0450
22604SOL     OW69252   2.059   5.617   2.948  0.5217 -0.3035  0.3502
22604SOL    HW169253   2.089   5.526   2.947 -1.5067 -1.0443 -1.4029
22604SOL    HW269254   2.036   5.636   2.857  0.2035  1.7462  0.8008
22605SOL     OW69255   2.700   7.299  11.372 -0.6509  0.5574  0.2697
22605SOL    HW169256   2.785   7.261  11.391 -1.1321  0.3360  2.1870
22605SOL    HW269257   2.713   7.346  11.290  1.3336  0.5742  0.5367
22606SOL     OW69258   3.583   4.356  12.225  0.0564 -0.3981 -0.5652
22606SOL    HW169259   3.585   4.428  12.162  0.5180 -1.1969 -1.4788
22606SOL    HW269260   3.492   4.355  12.257  0.2237  1.0757  0.0718
22607SOL     OW69261   0.004   4.779   7.755 -0.1033 -0.3685  0.0248
22607SOL    HW169262   0.090   4.770   7.714 -0.2547 -1.1335 -0.1508
22607SOL    HW269263  -0.054   4.726   7.699 -0.5739 -0.3211  0.4605
22608SOL     OW69264   0.299   7.155   8.334 -0.1929  0.1322 -0.6848
22608SOL    HW169265   0.342   7.074   8.363 -0.5599  1.0973  2.9906
22608SOL    HW269266   0.237   7.126   8.266 -0.0302 -2.6238  0.2240
22609SOL     OW69267   0.864   3.970   1.233  0.1490 -0.3439  0.0812
22609SOL    HW169268   0.950   4.007   1.254  0.0267 -0.1886  0.3196
22609SOL    HW269269   0.807   4.001   1.304  0.2509 -1.7991  0.8473
22610SOL     OW69270   2.696   5.276  12.321  0.3810 -0.6056  0.0590
22610SOL    HW169271   2.630   5.237  12.378  1.4832 -0.8260  1.2216
22610SOL    HW269272   2.707   5.365  12.355  0.7722 -0.6117 -0.0501
22611SOL     OW69273   5.586   1.808  11.768  0.1404 -0.3787  0.2999
22611SOL    HW169274   5.636   1.851  11.838  0.0754 -0.9369  0.6916
22611SOL    HW269275   5.509   1.864  11.756 -0.9837 -1.4426  2.2166
22612SOL     OW69276   3.594   4.248   0.894 -0.4503  0.8127 -0.1543
22612SOL    HW169277   3.553   4.188   0.956  2.4760 -0.3867  0.7581
22612SOL    HW269278   3.629   4.318   0.948  0.5306  0.7158 -0.6490
22613SOL     OW69279   6.107   7.658   7.557  0.4684  0.4272 -0.1323
22613SOL    HW169280   6.033   7.640   7.499 -1.3760 -3.2706  2.9434
22613SOL    HW269281   6.113   7.754   7.560 -2.0846  0.8093 -2.9569
22614SOL     OW69282   4.947   5.233   6.573  0.3840  0.3721  0.3881
22614SOL    HW169283   5.022   5.293   6.574  0.0564  0.8295 -0.6307
22614SOL    HW269284   4.982   5.150   6.604  1.2747  0.6324  0.1053
22615SOL     OW69285   7.063   0.133   9.796 -0.5548 -0.0820 -0.0074
22615SOL    HW169286   7.132   0.189   9.762  0.1184 -0.6368  0.4211
22615SOL    HW269287   7.109   0.058   9.833 -1.3373 -0.0745  1.0167
22616SOL     OW69288   0.800   6.694  10.373 -0.0471  0.1298  0.6041
22616SOL    HW169289   0.877   6.735  10.334 -0.0582  0.0371  0.4839
22616SOL    HW269290   0.828   6.667  10.460  0.0316  0.1763  0.5932
22617SOL     OW69291   4.419   1.272  11.657  0.2115 -0.3789  0.4304
22617SOL    HW169292   4.418   1.180  11.684  3.0319 -0.1132  1.8319
22617SOL    HW269293   4.453   1.270  11.567 -0.1828 -0.6911  0.2810
22618SOL     OW69294   6.204   5.414   0.180 -0.1611  0.9091  0.6719
22618SOL    HW169295   6.121   5.388   0.141 -0.3834 -1.0352  2.2576
22618SOL    HW269296   6.217   5.504   0.152 -1.4961  0.4383 -1.7460
22619SOL     OW69297   3.965   1.419   5.102 -0.6544  0.2175  0.0313
22619SOL    HW169298   3.900   1.348   5.098  0.8813 -1.2980  0.7577
22619SOL    HW269299   3.958   1.452   5.192 -1.3257  0.9554 -0.2888
22620SOL     OW69300   4.431   6.082   3.316 -0.3686 -0.8976 -0.5018
22620SOL    HW169301   4.369   6.009   3.308  1.3210 -2.6292  1.1932
22620SOL    HW269302   4.462   6.078   3.406  0.8691  1.0597 -0.7777
22621SOL     OW69303   4.940   3.319   1.762  0.0923 -0.7212  0.2018
22621SOL    HW169304   5.030   3.347   1.751 -0.1504 -0.0176 -0.0555
22621SOL    HW269305   4.899   3.332   1.676  0.3855 -3.5564 -0.4846
22622SOL     OW69306   1.847   6.058   4.351 -0.8544  0.4161 -0.6777
22622SOL    HW169307   1.803   6.025   4.273  0.1450 -0.1806 -1.0183
22622SOL    HW269308   1.871   5.979   4.400  0.7415  0.6274 -1.0389
22623SOL     OW69309   0.434   7.916  10.943  0.3481 -0.4447 -0.1894
22623SOL    HW169310   0.499   7.921  10.874  0.5800  1.3040  0.0886
22623SOL    HW269311   0.480   7.945  11.022 -0.8180  1.3428 -0.0801
22624SOL     OW69312   5.653   5.548   6.668  0.5002  0.3999  0.3263
22624SOL    HW169313   5.636   5.457   6.688 -1.1614  0.7858  0.7864
22624SOL    HW269314   5.746   5.550   6.645  0.7523 -1.2649  1.0392
22625SOL     OW69315   0.065   2.396   2.721  0.5779  0.1871 -0.3106
22625SOL    HW169316   0.094   2.329   2.784 -0.9948 -1.2376 -1.0134
22625SOL    HW269317   0.099   2.366   2.637  0.9754  1.0109 -0.4511
22626SOL     OW69318   7.050   4.780   4.081 -0.3129  0.2791  0.0133
22626SOL    HW169319   6.961   4.797   4.109 -0.2351  1.3555 -0.3521
22626SOL    HW269320   7.049   4.793   3.986 -0.2327 -1.8263 -0.3294
22627SOL     OW69321   2.056   0.483   0.737  0.1225 -0.8567  0.2594
22627SOL    HW169322   2.143   0.464   0.771  0.5800 -0.6904 -0.7822
22627SOL    HW269323   2.061   0.575   0.709 -0.5463 -0.6901  0.6769
22628SOL     OW69324   0.953   1.633  10.463 -0.6031 -0.1201 -0.1744
22628SOL    HW169325   0.888   1.563  10.470  2.5433 -3.2161  1.3330
22628SOL    HW269326   0.997   1.617  10.379 -0.5447  0.7444 -0.3174
22629SOL     OW69327   1.162   0.528   6.742  0.6254 -0.0199 -0.0189
22629SOL    HW169328   1.158   0.617   6.708 -1.4361  0.8106  2.0892
22629SOL    HW269329   1.073   0.494   6.733  1.0683 -1.3783  0.4095
22630SOL     OW69330   4.070   7.890   7.378 -0.1862  0.0163 -0.4098
22630SOL    HW169331   3.985   7.932   7.391  0.1944  0.7802 -0.3441
22630SOL    HW269332   4.095   7.857   7.464  0.7305  2.0124  0.1418
22631SOL     OW69333   5.436   6.168   5.223  0.0491  0.0066 -0.6920
22631SOL    HW169334   5.522   6.202   5.196 -0.4046  1.0552 -0.8622
22631SOL    HW269335   5.456   6.098   5.285  1.0096  0.8378 -0.0398
22632SOL     OW69336   0.532   2.175  11.900 -0.8768 -0.1356 -0.6257
22632SOL    HW169337   0.477   2.180  11.821 -0.8097 -0.3124 -0.6847
22632SOL    HW269338   0.621   2.172  11.867 -0.6894  2.2478 -0.4766
22633SOL     OW69339   3.349   5.980   8.269 -0.8730  0.0122 -0.1245
22633SOL    HW169340   3.359   6.033   8.348 -0.5816 -2.0113  1.2941
22633SOL    HW269341   3.271   5.927   8.286 -1.3856  0.2402 -1.6552
22634SOL     OW69342   4.309   1.810   0.568  0.6139  0.1510 -0.0312
22634SOL    HW169343   4.263   1.795   0.485 -0.6594  0.3751  0.6222
22634SOL    HW269344   4.398   1.778   0.551  1.1204  2.3957 -2.2695
22635SOL     OW69345   4.297   3.641   2.731  0.5376  0.1046 -0.1900
22635SOL    HW169346   4.276   3.553   2.698  0.6323 -1.0625  2.6047
22635SOL    HW269347   4.392   3.646   2.730  0.5966 -0.4708  1.1024
22636SOL     OW69348   4.259   0.305  12.108  0.3704 -0.2303  0.3132
22636SOL    HW169349   4.165   0.311  12.126 -0.1516  2.2423 -2.4719
22636SOL    HW269350   4.295   0.386  12.143  0.7217  0.6748 -1.9922
22637SOL     OW69351   4.489   6.628  12.110  0.4516 -0.5312 -0.0821
22637SOL    HW169352   4.506   6.538  12.082  1.3568 -0.5044  0.3392
22637SOL    HW269353   4.576   6.665  12.125  0.0627 -0.3380  2.0737
22638SOL     OW69354   5.286   3.626   0.386  0.4472 -0.2517 -0.3336
22638SOL    HW169355   5.203   3.580   0.369  0.9969 -1.2913 -0.3023
22638SOL    HW269356   5.346   3.592   0.319  0.7283  0.8568 -0.6633
22639SOL     OW69357   5.855   0.270   4.482 -0.5496 -0.1453 -0.2776
22639SOL    HW169358   5.943   0.304   4.499 -0.6372 -0.2822  0.4450
22639SOL    HW269359   5.840   0.205   4.551 -1.0542 -0.4265 -0.6480
22640SOL     OW69360   5.881   3.710   7.522 -0.3292  0.2241 -0.5525
22640SOL    HW169361   5.804   3.669   7.562 -0.3183  0.0016 -0.7556
22640SOL    HW269362   5.850   3.743   7.438 -0.2158  0.1767 -0.6136
22641SOL     OW69363   1.565   1.628  10.932  0.0426  0.0201 -0.1334
22641SOL    HW169364   1.627   1.623  11.005 -1.1389  0.7272  0.9605
22641SOL    HW269365   1.497   1.564  10.954 -0.2113  0.0839 -0.7246
22642SOL     OW69366   2.003   2.551   8.296 -0.1715  0.1170  0.5754
22642SOL    HW169367   2.040   2.491   8.360  0.1173  0.4809  0.7567
22642SOL    HW269368   2.018   2.638   8.333  0.3362  0.3573 -0.1586
22643SOL     OW69369   5.475   0.028   2.794  0.2636  0.3251  0.2217
22643SOL    HW169370   5.446   0.088   2.726 -2.2486 -0.2516  0.6597
22643SOL    HW269371   5.454   0.073   2.876 -1.1895 -0.8606  0.5508
22644SOL     OW69372   3.002   6.078   7.994  0.0150 -0.2636 -0.0323
22644SOL    HW169373   3.089   6.115   8.003 -0.5213  0.8355  0.9073
22644SOL    HW269374   2.997   6.012   8.064  0.2025 -0.5451 -0.2850
22645SOL     OW69375   1.623   4.532   7.652  0.2149  0.6575  0.3943
22645SOL    HW169376   1.702   4.549   7.600  0.1205  0.5422  0.2116
22645SOL    HW269377   1.655   4.524   7.742  0.6517 -1.0394  0.1365
22646SOL     OW69378   5.455   2.520  10.481  0.4641 -0.2942  0.3205
22646SOL    HW169379   5.401   2.567  10.417  0.9258  1.3504  1.0597
22646SOL    HW269380   5.429   2.556  10.566  0.5201 -1.7560  0.9830
22647SOL     OW69381   6.211   5.479   1.844 -0.4997 -0.2099 -0.1101
22647SOL    HW169382   6.136   5.428   1.813 -1.4007  0.2774  1.2129
22647SOL    HW269383   6.260   5.499   1.764 -1.4587 -1.0185 -0.9342
22648SOL     OW69384   7.478   5.058  11.994 -0.1125 -0.0676  0.1484
22648SOL    HW169385   7.418   5.120  11.952 -0.2934  0.3248  0.9771
22648SOL    HW269386   7.465   5.071  12.088  0.8546 -0.3908  0.3376
22649SOL     OW69387   3.935   0.788   2.216  0.4474 -0.4573  0.4240
22649SOL    HW169388   3.879   0.742   2.279  0.6386 -0.0121  0.9300
22649SOL    HW269389   4.002   0.724   2.192 -0.3411 -1.0472 -0.2985
22650SOL     OW69390   2.534   5.610   9.865  0.1045  0.0767 -0.5363
22650SOL    HW169391   2.478   5.628   9.791  0.6155  1.7436 -0.5443
22650SOL    HW269392   2.602   5.677   9.862  1.2816 -1.0030  0.3045
22651SOL     OW69393   3.792   0.801   7.581 -0.5897 -0.1346  0.6350
22651SOL    HW169394   3.874   0.794   7.629 -0.7102 -0.7959  0.7551
22651SOL    HW269395   3.775   0.712   7.550  0.3206  0.5041 -2.0221
22652SOL     OW69396   2.732   3.772   6.622  0.1455  0.4120  0.9606
22652SOL    HW169397   2.803   3.837   6.626 -0.1493  0.7936  0.2396
22652SOL    HW269398   2.769   3.693   6.663  0.5513  0.9870  1.7223
22653SOL     OW69399   1.337   5.681  10.649 -0.6400 -0.5071 -0.5197
22653SOL    HW169400   1.414   5.736  10.637 -1.6591  1.3773  1.0061
22653SOL    HW269401   1.367   5.609  10.704  0.0907  0.0882 -0.1216
22654SOL     OW69402   2.198   3.785   1.267  0.0862  0.2150 -0.2913
22654SOL    HW169403   2.103   3.784   1.258  0.1109 -1.0820 -0.5852
22654SOL    HW269404   2.221   3.696   1.293  1.0807  0.9308  1.5140
22655SOL     OW69405   1.075   2.187   3.845 -0.6750 -0.7251 -0.5713
22655SOL    HW169406   1.147   2.148   3.896 -1.4600  1.2304  2.3156
22655SOL    HW269407   1.113   2.265   3.806 -0.6192 -1.0645 -1.2053
22656SOL     OW69408   5.883   7.075  10.588  0.0317  0.0238 -0.0143
22656SOL    HW169409   5.961   7.090  10.535 -1.3904  2.5131 -1.6063
22656SOL    HW269410   5.847   6.992  10.555  0.5479  0.2406 -1.1568
22657SOL     OW69411   4.516   5.421   4.469  0.5939 -0.1094 -0.1359
22657SOL    HW169412   4.532   5.381   4.555  0.0253  1.4167  0.7094
22657SOL    HW269413   4.421   5.431   4.465  0.6625  0.3465 -0.7114
22658SOL     OW69414   1.566   5.181   2.710 -0.1441  0.1118  0.1530
22658SOL    HW169415   1.653   5.194   2.747 -0.0500 -0.2041  0.0381
22658SOL    HW269416   1.513   5.252   2.749  0.3499  0.8001 -0.4042
22659SOL     OW69417   2.734   0.019   6.015 -0.1363  0.2742  0.1366
22659SOL    HW169418   2.819   0.055   5.992 -0.4856  2.3441  1.7754
22659SOL    HW269419   2.671   0.072   5.966 -0.5618  0.0985  0.4788
22660SOL     OW69420   1.288   3.958   0.992 -0.0443 -0.0315  0.5465
22660SOL    HW169421   1.299   3.863   0.989  0.2930 -0.0154  1.1747
22660SOL    HW269422   1.226   3.977   0.921  0.4375 -0.6380 -0.0513
22661SOL     OW69423   6.508   6.528  12.460 -0.5428  0.3025 -0.3206
22661SOL    HW169424   6.520   6.536  12.365 -0.6260  0.3815 -0.3256
22661SOL    HW269425   6.413   6.518  12.472 -0.7522  2.0499 -0.1438
22662SOL     OW69426   6.984   2.963   3.111  0.7410 -0.0048  0.1853
22662SOL    HW169427   6.982   3.058   3.121 -1.2428  0.1715 -1.3425
22662SOL    HW269428   6.936   2.930   3.187 -3.1785  0.6021 -1.8083
22663SOL     OW69429   2.079   5.535   6.341 -0.1587  0.3429 -0.5684
22663SOL    HW169430   2.142   5.591   6.387 -0.9872 -0.2315  1.3712
22663SOL    HW269431   2.014   5.513   6.408 -1.0447 -1.1414 -1.8663
22664SOL     OW69432   4.868   1.224   8.276 -0.3189  0.5025  0.2796
22664SOL    HW169433   4.861   1.285   8.349  0.1645  0.7737  0.1065
22664SOL    HW269434   4.788   1.237   8.226 -0.3162  0.8448  0.3609
22665SOL     OW69435   2.260   1.592   6.080  0.0483 -0.3125  0.7780
22665SOL    HW169436   2.353   1.574   6.094 -0.1277 -0.4596  1.8451
22665SOL    HW269437   2.245   1.676   6.123 -0.3367 -0.3564  0.7347
22666SOL     OW69438   2.842   5.915   1.987 -0.2847 -0.5613 -0.0085
22666SOL    HW169439   2.875   5.990   2.036 -0.1418 -0.4344 -0.3002
22666SOL    HW269440   2.846   5.942   1.895 -1.1875 -0.5504 -0.0491
22667SOL     OW69441   7.845   0.454   1.091  0.4924 -0.2002 -0.4502
22667SOL    HW169442   7.852   0.375   1.145 -0.9863 -0.3890 -0.5051
22667SOL    HW269443   7.756   0.453   1.058 -0.2975  2.5757  1.2644
22668SOL     OW69444   0.792   3.952   5.432 -0.1203 -0.8701 -0.1275
22668SOL    HW169445   0.854   3.884   5.405  0.3924 -0.1254 -0.9122
22668SOL    HW269446   0.724   3.950   5.364  0.3685 -0.0207 -0.6670
22669SOL     OW69447   0.247   0.041   9.089 -0.5097  0.2381 -0.1750
22669SOL    HW169448   0.233   0.136   9.089 -0.8159  0.2057  0.7039
22669SOL    HW269449   0.310   0.026   9.160  0.4032 -0.1098 -1.0370
22670SOL     OW69450   7.612   5.874   1.358  0.1070  0.5845  0.2453
22670SOL    HW169451   7.569   5.960   1.358 -0.7773  0.1557  0.4041
22670SOL    HW269452   7.541   5.812   1.373  0.3962 -0.3528 -1.8249
22671SOL     OW69453   7.754   2.520   9.120  0.1164 -0.0678 -0.8227
22671SOL    HW169454   7.758   2.520   9.216  0.5326  1.9001 -0.7960
22671SOL    HW269455   7.840   2.487   9.093 -0.2791 -1.3979 -0.5654
22672SOL     OW69456   7.571   4.721   9.365 -0.0201 -0.0498  0.1025
22672SOL    HW169457   7.487   4.754   9.398  0.0833  0.2249  0.0973
22672SOL    HW269458   7.563   4.727   9.270  0.7798  2.0069  0.1061
22673SOL     OW69459   1.889   4.940   7.384  0.0246  0.3968 -0.0894
22673SOL    HW169460   1.885   4.958   7.290 -0.0849 -0.3329 -0.2330
22673SOL    HW269461   1.816   4.990   7.421 -0.5358 -0.0702 -0.5309
22674SOL     OW69462   1.267   4.061   8.225 -0.1550  0.0023  0.4460
22674SOL    HW169463   1.290   3.972   8.253 -0.2695 -0.1600  0.0398
22674SOL    HW269464   1.342   4.088   8.171 -0.1370  0.1353  0.5397
22675SOL     OW69465   1.271   3.221   2.757 -0.1997 -0.1040  0.2358
22675SOL    HW169466   1.342   3.220   2.821 -0.7251 -2.5144  0.8796
22675SOL    HW269467   1.206   3.161   2.792 -0.5781 -1.4197 -2.4759
22676SOL     OW69468   3.460   5.745   3.301  0.4860 -0.4517 -0.2949
22676SOL    HW169469   3.457   5.760   3.396  1.6561  0.3523 -0.3623
22676SOL    HW269470   3.461   5.650   3.292  0.5002 -0.5388  0.5153
22677SOL     OW69471   1.033   6.063   8.976 -0.1275  0.3374 -0.6849
22677SOL    HW169472   0.970   5.991   8.971  1.0913 -0.7711 -0.5452
22677SOL    HW269473   1.083   6.057   8.894  2.4036 -1.3341  0.8365
22678SOL     OW69474   2.797   3.285   6.090 -0.6723 -0.2148 -0.1415
22678SOL    HW169475   2.728   3.268   6.026 -1.8897  1.2186  0.7359
22678SOL    HW269476   2.826   3.375   6.070  0.7036 -0.6540 -0.2487
22679SOL     OW69477   1.294   6.587   8.027 -0.3716  0.2243 -0.4237
22679SOL    HW169478   1.287   6.561   7.935 -2.1945  0.2049 -0.3176
22679SOL    HW269479   1.227   6.654   8.038  0.7072  1.1694  0.5977
22680SOL     OW69480   2.265   5.018   7.835  0.0554 -0.7746  0.4012
22680SOL    HW169481   2.317   4.949   7.794  0.4904 -0.0638 -0.2634
22680SOL    HW269482   2.327   5.090   7.850 -0.6685 -0.0065 -0.1795
22681SOL     OW69483   0.695   1.994  11.224 -0.3089  0.4342  0.1894
22681SOL    HW169484   0.739   2.064  11.271 -0.5098  1.2951 -0.8945
22681SOL    HW269485   0.602   2.017  11.228 -0.6763 -1.0635  1.9527
22682SOL     OW69486   4.334   2.422   3.544 -0.0871  0.2951 -0.8997
22682SOL    HW169487   4.340   2.328   3.558 -1.5788  0.3276  0.2639
22682SOL    HW269488   4.418   2.446   3.506 -0.2485 -1.7309 -2.7319
22683SOL     OW69489   1.335   2.027   2.168 -0.4352  0.0629 -0.4398
22683SOL    HW169490   1.265   1.984   2.118  0.9947  0.3457 -2.7849
22683SOL    HW269491   1.409   2.032   2.108  0.7558  2.2543  1.0614
22684SOL     OW69492   3.036   0.545   3.431 -0.4543  0.0766  0.4555
22684SOL    HW169493   3.040   0.588   3.516 -3.2483  1.7440 -0.1214
22684SOL    HW269494   3.113   0.578   3.383 -1.7883  3.6359  0.4893
22685SOL     OW69495   7.133   6.156   1.572  0.1305 -0.1398  0.4863
22685SOL    HW169496   7.170   6.117   1.493  0.4645  1.7611 -0.3419
22685SOL    HW269497   7.048   6.113   1.581 -0.9376  1.1253 -2.2481
22686SOL     OW69498   0.431   3.234   8.601 -0.2963 -0.0778 -0.1784
22686SOL    HW169499   0.431   3.277   8.516 -0.2295  0.1760 -0.0537
22686SOL    HW269500   0.522   3.237   8.630 -0.1852 -0.8424 -0.4322
22687SOL     OW69501   7.038   5.189  10.261 -0.1416 -0.3389  0.4481
22687SOL    HW169502   7.044   5.143  10.344  0.1127  0.2978  0.7933
22687SOL    HW269503   6.945   5.186  10.239 -0.5906  1.3540  1.8700
22688SOL     OW69504   7.891   2.933   3.398 -0.2034 -0.0613 -0.4020
22688SOL    HW169505   7.882   2.838   3.402 -1.5032  0.0834  1.5200
22688SOL    HW269506   7.826   2.960   3.333 -2.5893 -0.2911  1.7203
22689SOL     OW69507   3.401   2.228  11.955 -0.6964 -0.8745 -0.1124
22689SOL    HW169508   3.386   2.134  11.967 -0.8198 -0.7818  0.4997
22689SOL    HW269509   3.419   2.260  12.044 -2.5500  0.0177 -0.0231
22690SOL     OW69510   3.534   2.804   7.133 -0.2698 -0.2904 -0.1876
22690SOL    HW169511   3.608   2.852   7.096 -1.3385  2.8688  1.4280
22690SOL    HW269512   3.574   2.743   7.194  1.0820 -0.1794 -0.9183
22691SOL     OW69513   4.347   1.493   0.327  0.0627  0.3169 -0.0001
22691SOL    HW169514   4.294   1.540   0.263 -0.7341 -0.3603  0.1432
22691SOL    HW269515   4.389   1.423   0.276  0.2390  0.4066  0.0224
22692SOL     OW69516   6.852   1.453  11.412 -0.2104 -0.3446  0.8220
22692SOL    HW169517   6.805   1.384  11.363 -0.2113 -0.0976  0.4743
22692SOL    HW269518   6.943   1.426  11.409  0.2558  1.1915 -1.9398
22693SOL     OW69519   0.523   5.359   2.233 -0.5319  1.2802 -0.4471
22693SOL    HW169520   0.514   5.266   2.251 -1.8925  1.2087 -1.3044
22693SOL    HW269521   0.491   5.369   2.143 -0.5148  2.5824 -0.3316
22694SOL     OW69522   4.331   6.105  11.582  0.7800 -0.1153 -0.7393
22694SOL    HW169523   4.350   6.070  11.495  0.9907 -0.2554 -0.6372
22694SOL    HW269524   4.413   6.097  11.630  0.9821  1.0053 -0.8725
22695SOL     OW69525   2.317   2.103  11.641  0.0061  0.6639  0.2260
22695SOL    HW169526   2.312   2.145  11.727 -0.9938  2.1343 -0.5058
22695SOL    HW269527   2.399   2.136  11.603  1.0231 -0.8484  0.9950
22696SOL     OW69528   7.931   6.422   7.976  0.5662 -0.1244  0.9378
22696SOL    HW169529   7.873   6.352   7.946 -0.2901  0.9825 -0.0713
22696SOL    HW269530   8.018   6.394   7.946 -0.0073  0.0640 -1.0917
22697SOL     OW69531   6.307   2.404   6.068 -0.1875 -1.3483  0.3583
22697SOL    HW169532   6.283   2.396   6.161  1.0356 -3.6822  0.5548
22697SOL    HW269533   6.402   2.389   6.067 -0.0666 -0.5954 -1.2075
22698SOL     OW69534   4.645   7.886   4.956  0.6213 -0.5025 -0.2814
22698SOL    HW169535   4.559   7.912   4.923  0.0393 -0.8897  0.8773
22698SOL    HW269536   4.702   7.961   4.937  0.0037 -0.1827 -0.9259
22699SOL     OW69537   0.599   3.800   9.987  0.5287  0.1721  0.0496
22699SOL    HW169538   0.659   3.868   9.957 -0.3129  0.6596 -0.5717
22699SOL    HW269539   0.616   3.725   9.930 -1.2867  1.1919 -1.9933
22700SOL     OW69540   4.403   7.826   7.577  0.6239 -0.2336  0.0436
22700SOL    HW169541   4.309   7.827   7.595  0.7653  0.6297  0.8081
22700SOL    HW269542   4.413   7.761   7.507 -0.4089 -1.0381  0.6170
22701SOL     OW69543   3.425   3.050   0.468 -0.0228  0.0524 -0.0860
22701SOL    HW169544   3.385   2.976   0.422 -0.2387  1.0837 -1.6542
22701SOL    HW269545   3.517   3.024   0.480  0.6550  0.5433 -3.1722
22702SOL     OW69546   7.746   2.996   2.809  0.1765  0.0845  0.7101
22702SOL    HW169547   7.765   3.090   2.813 -1.0182  0.2999  1.7226
22702SOL    HW269548   7.771   2.962   2.895 -1.1273 -0.1771  1.0009
22703SOL     OW69549   3.385   2.463  10.841 -0.2413 -0.1868 -0.0180
22703SOL    HW169550   3.383   2.438  10.749 -3.2405 -1.1466  0.2193
22703SOL    HW269551   3.443   2.540  10.844 -0.1817 -0.0564 -2.6970
22704SOL     OW69552   6.642   5.473   1.433 -0.3012 -0.1172 -0.0406
22704SOL    HW169553   6.556   5.501   1.466 -0.3057 -0.6150  0.3806
22704SOL    HW269554   6.671   5.408   1.496  0.2324 -0.2072 -0.3806
22705SOL     OW69555   1.344   1.583   3.152 -0.4339 -0.3377  0.2575
22705SOL    HW169556   1.363   1.498   3.113  0.4166  0.0209 -0.1399
22705SOL    HW269557   1.332   1.642   3.077  0.8640  0.2859  0.5207
22706SOL     OW69558   2.647   5.002  11.240  0.2032 -0.5486 -0.5107
22706SOL    HW169559   2.556   4.973  11.240  0.1168 -0.2901 -1.1145
22706SOL    HW269560   2.698   4.921  11.245 -0.0546 -0.7059 -0.3988
22707SOL     OW69561   5.445   7.872  10.434 -0.0166 -0.0315 -0.3416
22707SOL    HW169562   5.369   7.911  10.476  0.4368  0.3326  0.1526
22707SOL    HW269563   5.518   7.894  10.491  0.7457  1.1340 -1.7134
22708SOL     OW69564   1.341   5.599   5.211  0.0478 -0.3871 -0.2938
22708SOL    HW169565   1.264   5.603   5.268 -1.5846 -0.6426 -2.3587
22708SOL    HW269566   1.383   5.684   5.223 -2.7481  1.3949 -1.9020
22709SOL     OW69567   7.727   2.971   0.401 -0.2013 -0.6324  0.8957
22709SOL    HW169568   7.702   2.927   0.319 -1.7408  0.8331  0.5194
22709SOL    HW269569   7.674   2.928   0.468 -0.1057 -0.7814  0.8768
22710SOL     OW69570   0.919   5.371   5.292  0.4919 -0.0065  0.3666
22710SOL    HW169571   0.838   5.392   5.340 -0.7182 -1.8479 -0.7472
22710SOL    HW269572   0.946   5.455   5.254 -1.7311  0.4194 -0.4361
22711SOL     OW69573   6.929   1.815   4.097 -0.0123  1.0036 -0.6151
22711SOL    HW169574   6.964   1.834   4.010 -1.4457  0.9802 -1.2207
22711SOL    HW269575   6.921   1.720   4.100 -2.1641  1.1093 -1.3938
22712SOL     OW69576   4.933   3.119   9.662  0.4273 -0.4354 -0.2648
22712SOL    HW169577   5.026   3.125   9.684  0.1013  0.5179  0.9733
22712SOL    HW269578   4.918   3.190   9.600  0.7847 -1.4432 -1.5469
22713SOL     OW69579   3.309   2.817   2.733  0.5895  0.3343  0.0126
22713SOL    HW169580   3.267   2.741   2.774  1.5607 -0.2040  0.0341
22713SOL    HW269581   3.237   2.865   2.691 -0.0765 -0.4259  0.2704
22714SOL     OW69582   0.915   5.815   3.808 -0.4429 -0.0034 -0.1560
22714SOL    HW169583   0.928   5.727   3.844  1.0944  0.1392 -0.2612
22714SOL    HW269584   0.982   5.823   3.740  0.8187  1.9189  1.1846
22715SOL     OW69585   4.292   2.711   8.291  0.0636  0.3515 -0.3663
22715SOL    HW169586   4.311   2.646   8.358 -1.6362 -1.0971 -1.1936
22715SOL    HW269587   4.238   2.777   8.335 -1.9005 -1.1091 -0.4657
22716SOL     OW69588   1.537   7.647   1.634 -0.8146 -0.4966  0.3332
22716SOL    HW169589   1.553   7.727   1.685 -2.9367  1.3819 -1.6718
22716SOL    HW269590   1.605   7.648   1.567 -2.7961  1.8183 -1.9026
22717SOL     OW69591   4.326   0.165   9.328  0.2412  0.2347  0.1182
22717SOL    HW169592   4.282   0.137   9.247 -1.0376 -0.0592  0.8908
22717SOL    HW269593   4.401   0.216   9.297 -1.1667  1.5902 -1.2910
22718SOL     OW69594   0.666   5.637   8.878  0.4335  0.5612  0.0602
22718SOL    HW169595   0.597   5.658   8.941  0.9631  1.1586  0.4629
22718SOL    HW269596   0.639   5.555   8.838  0.0477  0.2101  1.0187
22719SOL     OW69597   7.595   6.833   6.331  0.1036 -0.1758  0.1625
22719SOL    HW169598   7.629   6.744   6.337 -0.0617 -0.4018 -1.6344
22719SOL    HW269599   7.657   6.878   6.273  0.8869  1.2777  2.0175
22720SOL     OW69600   0.188   2.970   2.630  1.2501  0.0593 -0.1348
22720SOL    HW169601   0.153   2.907   2.692  0.1815  1.1869  0.4751
22720SOL    HW269602   0.276   2.990   2.661  0.4796  1.1568  1.5226
22721SOL     OW69603   1.828   7.661  12.139  0.1269  0.0495  0.1187
22721SOL    HW169604   1.858   7.714  12.213  0.7954 -1.2266  0.8140
22721SOL    HW269605   1.757   7.608  12.176  0.0280 -0.1305 -0.3257
22722SOL     OW69606   1.225   3.489   2.641  0.4509  0.6637  0.0917
22722SOL    HW169607   1.245   3.422   2.706  0.0113 -0.8279 -1.2387
22722SOL    HW269608   1.235   3.444   2.557  0.8116  2.4702 -0.8880
22723SOL     OW69609   2.140   6.244   7.219 -0.3143 -0.1589 -0.3817
22723SOL    HW169610   2.169   6.180   7.155  0.0995  0.6912 -1.0761
22723SOL    HW269611   2.045   6.246   7.210 -0.2261  0.3449 -1.3884
22724SOL     OW69612   3.733   1.727  11.602 -0.1183 -0.1064  0.1678
22724SOL    HW169613   3.754   1.695  11.690 -2.3005  0.0351  0.8034
22724SOL    HW269614   3.750   1.653  11.544  3.4911  0.4308  0.2757
22725SOL     OW69615   4.213   1.267  10.924 -0.3233 -0.1730  0.5120
22725SOL    HW169616   4.258   1.183  10.935 -0.4375 -0.1749  0.9785
22725SOL    HW269617   4.283   1.332  10.925 -0.2033 -0.2753 -0.1455
22726SOL     OW69618   4.067   0.344   4.293  0.0109  0.8560  0.3862
22726SOL    HW169619   4.136   0.407   4.274  1.0509 -0.8059 -1.7969
22726SOL    HW269620   4.060   0.344   4.388  3.1346  1.0180  0.7045
22727SOL     OW69621   7.128   7.850  11.470  0.3240 -0.6020 -0.1282
22727SOL    HW169622   7.178   7.924  11.505 -0.1946 -0.0089 -0.6171
22727SOL    HW269623   7.094   7.805  11.547  0.7328 -0.3972  0.1766
22728SOL     OW69624   7.457   7.301   1.747  0.2457 -0.1035 -0.4692
22728SOL    HW169625   7.537   7.354   1.748  0.7949 -0.9040 -0.8905
22728SOL    HW269626   7.488   7.212   1.731 -0.7530 -0.3988 -0.7892
22729SOL     OW69627   2.137   3.663   4.841  0.0045 -0.0104  0.0552
22729SOL    HW169628   2.183   3.743   4.817 -0.9510  0.4727 -0.2364
22729SOL    HW269629   2.180   3.594   4.789  0.0035  0.5267 -0.6770
22730SOL     OW69630   0.054   4.447  11.805 -0.0342 -0.3045 -0.9560
22730SOL    HW169631  -0.041   4.443  11.797 -0.2686  0.1248  1.1781
22730SOL    HW269632   0.081   4.355  11.815 -0.3073 -0.3581 -0.7022
22731SOL     OW69633   4.795   0.485  11.012 -0.4813  0.1246  0.0980
22731SOL    HW169634   4.863   0.553  11.016  0.5093 -0.9003  2.3786
22731SOL    HW269635   4.841   0.407  10.982 -0.3363 -0.8294  2.5871
22732SOL     OW69636   5.666   3.410   5.070  0.3523 -0.0728  0.0941
22732SOL    HW169637   5.709   3.425   5.154 -0.9332  1.7238  0.4822
22732SOL    HW269638   5.572   3.420   5.089  0.0808  1.1535 -1.6858
22733SOL     OW69639   5.897   6.584   4.068 -0.2320  0.4336  0.1271
22733SOL    HW169640   5.861   6.503   4.034  0.5199  0.0168  0.2864
22733SOL    HW269641   5.877   6.582   4.162  0.3729  0.0952  0.2569
22734SOL     OW69642   6.429   7.045  11.383 -0.1811  0.0268 -1.0045
22734SOL    HW169643   6.410   7.071  11.474  1.0178 -0.7527 -0.5006
22734SOL    HW269644   6.426   7.127  11.334 -1.2968  0.3995 -0.3407
22735SOL     OW69645   4.334   6.251   2.894  0.2008  0.3402  0.1967
22735SOL    HW169646   4.247   6.236   2.856  0.7327 -1.8643 -0.2748
22735SOL    HW269647   4.394   6.243   2.820  0.8595  1.7234  0.5488
22736SOL     OW69648   2.118   5.845   7.559  0.1690  0.1487  0.5812
22736SOL    HW169649   2.152   5.835   7.470 -0.1171  1.6574  0.2865
22736SOL    HW269650   2.191   5.817   7.615 -0.0945 -2.1051 -0.1020
22737SOL     OW69651   5.632   6.217   8.852  0.6604 -0.2298 -0.0235
22737SOL    HW169652   5.606   6.169   8.773 -0.3000 -0.1944  0.2479
22737SOL    HW269653   5.682   6.153   8.904  1.1623 -0.2975 -0.5852
22738SOL     OW69654   7.953   6.798   9.129 -0.6915  0.3738 -0.3029
22738SOL    HW169655   7.888   6.847   9.079  0.5881  1.2676 -1.1374
22738SOL    HW269656   8.014   6.765   9.064  1.0506  1.6147  0.6107
22739SOL     OW69657   0.992   1.087   3.262 -0.5278  0.0046  0.4764
22739SOL    HW169658   0.898   1.082   3.245 -1.2423  3.3209  2.4405
22739SOL    HW269659   1.023   1.154   3.202  0.7619 -1.4354 -0.5201
22740SOL     OW69660   1.168   6.912   5.023  0.3727  0.1043 -0.2317
22740SOL    HW169661   1.169   6.970   4.946 -0.2586 -0.0739 -0.3783
22740SOL    HW269662   1.224   6.957   5.087  0.9542  0.2259 -0.8128
22741SOL     OW69663   2.539   7.758  12.175 -0.1997  0.3212 -0.0791
22741SOL    HW169664   2.473   7.770  12.106  0.2283 -1.1189 -0.7654
22741SOL    HW269665   2.514   7.676  12.218  1.1771 -0.2739 -0.3881
22742SOL     OW69666   3.099   6.305   5.695 -0.0526 -0.1239 -0.1709
22742SOL    HW169667   3.187   6.336   5.674  0.4473  0.2118  2.0957
22742SOL    HW269668   3.092   6.220   5.652  0.7760  0.5011 -1.6270
22743SOL     OW69669   1.970   7.160   7.046 -0.2019 -0.5793 -0.3891
22743SOL    HW169670   1.965   7.108   7.127 -0.6498  0.7559  0.4815
22743SOL    HW269671   1.946   7.098   6.977  2.0008 -2.2636  0.2226
22744SOL     OW69672   1.469   1.982  11.191  0.4945  0.1603 -0.0554
22744SOL    HW169673   1.547   1.942  11.229  0.1611 -0.1161  0.3523
22744SOL    HW269674   1.478   2.075  11.209  0.5842  0.0909  0.2695
22745SOL     OW69675   5.002   3.106   6.207 -0.5010  0.2457  0.1149
22745SOL    HW169676   4.914   3.123   6.240 -0.6761  0.1735 -0.3078
22745SOL    HW269677   5.021   3.179   6.149 -1.3344 -1.0199 -1.8522
22746SOL     OW69678   7.096   5.464   7.752 -0.1940  0.3404 -0.0143
22746SOL    HW169679   7.185   5.432   7.770 -0.9841 -1.2877  1.3180
22746SOL    HW269680   7.050   5.453   7.835 -1.0520  3.4770  0.0482
22747SOL     OW69681   1.034   5.210  11.570 -0.1925 -0.0267 -0.2997
22747SOL    HW169682   0.973   5.256  11.513 -0.0195 -0.8800 -1.1958
22747SOL    HW269683   0.996   5.216  11.657 -1.5047 -0.4613 -0.8268
22748SOL     OW69684   7.471   7.266   9.929  0.7362  0.3425 -0.0588
22748SOL    HW169685   7.447   7.237  10.017  2.1910 -0.0467  0.2331
22748SOL    HW269686   7.523   7.344   9.943  3.8019 -1.5122 -0.2919
22749SOL     OW69687   3.115   2.426   4.935  0.1266  0.4092 -0.2625
22749SOL    HW169688   3.202   2.462   4.956 -0.1646  2.2305 -1.8913
22749SOL    HW269689   3.130   2.366   4.862 -0.0401  1.3179 -1.0680
22750SOL     OW69690   4.201   6.470   7.395  0.0321  0.1945 -0.3457
22750SOL    HW169691   4.287   6.508   7.417 -0.3755  0.8808  0.1057
22750SOL    HW269692   4.138   6.528   7.438 -0.6672 -0.2136 -0.8079
22751SOL     OW69693   5.046   6.102   3.949 -0.6881  0.1553  0.0556
22751SOL    HW169694   5.130   6.119   3.907 -0.4959 -0.2408  0.2734
22751SOL    HW269695   5.054   6.013   3.984 -2.7249 -1.7737 -3.7248
22752SOL     OW69696   2.012   1.282   7.572 -1.1125 -0.0737 -0.0355
22752SOL    HW169697   1.959   1.283   7.492 -0.6542  0.0661 -0.3436
22752SOL    HW269698   2.027   1.375   7.590 -0.9647 -0.1141  0.0431
22753SOL     OW69699   1.091   1.828   3.037  0.6502  0.2317  0.6217
22753SOL    HW169700   1.107   1.737   3.010 -1.9184  0.3619 -1.7921
22753SOL    HW269701   1.065   1.821   3.128 -1.8391 -1.8555 -0.1319
22754SOL     OW69702   0.023   1.536   9.738 -0.0850  0.1338 -0.7878
22754SOL    HW169703   0.056   1.600   9.802 -1.0837  0.2968 -0.4128
22754SOL    HW269704   0.081   1.461   9.747  0.7222  0.7471 -0.7867
22755SOL     OW69705   4.987   4.990   5.235 -0.0135  0.4859  0.2955
22755SOL    HW169706   5.048   5.016   5.304 -0.3734  0.0686  0.7863
22755SOL    HW269707   4.926   4.931   5.279 -0.5932  0.6653 -0.2550
22756SOL     OW69708   6.335   7.246  11.049 -0.4777 -0.1054 -0.6238
22756SOL    HW169709   6.417   7.196  11.045 -1.4052 -1.7224 -0.0745
22756SOL    HW269710   6.346   7.302  11.125 -0.2381 -0.9875  0.0049
22757SOL     OW69711   7.130   4.796   1.524 -0.4552  0.0157 -0.3167
22757SOL    HW169712   7.191   4.735   1.482 -1.8619 -0.2876 -2.0149
22757SOL    HW269713   7.182   4.837   1.593  1.1679 -1.4752 -0.5733
22758SOL     OW69714   6.957   5.371   9.529 -0.4191 -0.2005  0.5785
22758SOL    HW169715   6.942   5.357   9.623 -0.1807 -1.2093  0.4709
22758SOL    HW269716   7.050   5.389   9.522 -0.4041 -0.3018  0.5172
22759SOL     OW69717   5.431   1.126   9.559  0.4966  0.0606 -0.9308
22759SOL    HW169718   5.511   1.173   9.579  0.2388  0.3169 -0.4857
22759SOL    HW269719   5.447   1.037   9.590  0.8193 -0.0341 -1.3671
22760SOL     OW69720   1.833   0.055  12.348 -0.4592 -0.2530 -0.4871
22760SOL    HW169721   1.782   0.039  12.268 -1.4380 -1.0443  0.2640
22760SOL    HW269722   1.860  -0.032  12.376 -0.5194 -0.0279  0.2922
22761SOL     OW69723   0.948   1.584   3.568 -0.4358  0.0179  0.8052
22761SOL    HW169724   0.898   1.506   3.592  0.4035 -0.3199  1.5323
22761SOL    HW269725   1.014   1.552   3.507  1.1285 -0.2516  2.5457
22762SOL     OW69726   1.134   5.061   6.641  0.1904 -0.3948 -0.0891
22762SOL    HW169727   1.203   5.002   6.670 -0.3383 -0.8901  0.1875
22762SOL    HW269728   1.067   5.055   6.709  0.4547  1.1110  0.3230
22763SOL     OW69729   0.939   1.458   0.909  0.3856  0.1213 -0.0963
22763SOL    HW169730   1.020   1.462   0.858  0.5673  1.2123  0.2506
22763SOL    HW269731   0.870   1.456   0.844  0.6119  1.6569 -0.4262
22764SOL     OW69732   7.674   7.236   1.134  0.5752 -0.5591 -0.4082
22764SOL    HW169733   7.732   7.270   1.066  0.0880  0.0690 -0.5280
22764SOL    HW269734   7.586   7.261   1.104  0.3156 -0.7596  0.1801
22765SOL     OW69735   5.081   4.354   9.463  0.7419  0.1049  0.8479
22765SOL    HW169736   5.167   4.375   9.498  1.0790  0.5460 -0.2079
22765SOL    HW269737   5.041   4.440   9.445  0.8340 -0.1107 -0.4374
22766SOL     OW69738   2.567   4.512   5.793  0.2571 -0.9108 -0.6310
22766SOL    HW169739   2.534   4.563   5.719 -0.0507  1.2282  0.8850
22766SOL    HW269740   2.491   4.462   5.823 -0.6340  0.9564  0.3921
22767SOL     OW69741   6.433   5.487   6.320 -0.8641 -0.3346  0.3117
22767SOL    HW169742   6.356   5.478   6.264 -0.7383 -1.2752  0.2870
22767SOL    HW269743   6.508   5.472   6.262 -0.7502 -1.9908  0.8307
22768SOL     OW69744   6.994   1.126  10.369 -0.1163  0.3634  0.1851
22768SOL    HW169745   7.052   1.097  10.440 -2.1381 -0.9820  1.3912
22768SOL    HW269746   7.013   1.065  10.297  0.7341  0.6500  0.1518
22769SOL     OW69747   5.808   0.702  12.157  0.3097 -0.1409 -0.1984
22769SOL    HW169748   5.793   0.720  12.064  0.7596 -0.9479 -0.4370
22769SOL    HW269749   5.834   0.610  12.159 -0.2403 -0.2763  0.7929
22770SOL     OW69750   4.822   7.156   8.216 -0.0654 -0.1559  0.1441
22770SOL    HW169751   4.750   7.135   8.157 -0.2556 -1.2520  0.7412
22770SOL    HW269752   4.833   7.078   8.270  1.8089 -0.1484 -0.1589
22771SOL     OW69753   5.642   1.089   5.010  0.0945 -0.0923 -0.3175
22771SOL    HW169754   5.735   1.098   5.032  0.0461 -0.5477  0.0902
22771SOL    HW269755   5.624   0.996   5.020 -0.6920  0.1649  0.7509
22772SOL     OW69756   4.961   4.379   3.018  0.0924  0.2470  0.1786
22772SOL    HW169757   4.922   4.432   3.087 -0.3788 -0.5638  0.5523
22772SOL    HW269758   4.943   4.288   3.044  1.4243 -0.1349 -0.1108
22773SOL     OW69759   4.108   5.172  10.257  0.4977  0.6577 -0.1953
22773SOL    HW169760   4.135   5.081  10.258  0.5469  0.6274  2.1612
22773SOL    HW269761   4.013   5.169  10.262  0.5066  0.7384  0.0188
22774SOL     OW69762   5.221   1.028   4.506  0.1375 -0.2882  0.0110
22774SOL    HW169763   5.234   1.080   4.586  0.9768 -0.7434  0.1893
22774SOL    HW269764   5.142   0.977   4.523 -0.1023  0.1625  0.2550
22775SOL     OW69765   0.096   5.651  11.187 -0.2603 -0.2874 -0.0270
22775SOL    HW169766   0.041   5.580  11.221 -0.5613 -0.0137  0.0645
22775SOL    HW269767   0.124   5.621  11.100 -1.1019 -0.1432 -0.3545
22776SOL     OW69768   1.595   6.205  12.154 -0.7137 -0.0771 -0.2246
22776SOL    HW169769   1.552   6.141  12.211  0.5306 -0.0048  0.8263
22776SOL    HW269770   1.616   6.156  12.074 -0.2140 -0.8646  0.3807
22777SOL     OW69771   4.689   7.742   9.331  0.8098  0.6958 -0.7138
22777SOL    HW169772   4.682   7.826   9.284  0.1594  0.5775 -0.8435
22777SOL    HW269773   4.771   7.704   9.300  0.3866  0.6112 -1.7867
22778SOL     OW69774   3.945   5.737  11.655  0.0223 -0.3224  0.1823
22778SOL    HW169775   3.971   5.827  11.670 -2.1588  0.3465  0.4102
22778SOL    HW269776   3.898   5.739  11.571  0.9367 -1.4931 -0.3903
22779SOL     OW69777   7.701   2.306   1.991 -0.5284  0.3866 -0.2272
22779SOL    HW169778   7.681   2.350   1.909  2.2328  0.9096 -0.7174
22779SOL    HW269779   7.712   2.377   2.055  1.8784  0.3835 -0.5441
22780SOL     OW69780   2.398   6.690   2.279 -0.5789 -0.2781 -0.3214
22780SOL    HW169781   2.387   6.758   2.346 -2.4010 -0.6281 -0.2189
22780SOL    HW269782   2.347   6.722   2.205 -0.8750 -1.2155 -0.5291
22781SOL     OW69783   6.789   7.388  12.293 -0.1047 -0.1799  0.2852
22781SOL    HW169784   6.698   7.386  12.322 -0.4950 -2.1360 -0.8919
22781SOL    HW269785   6.784   7.368  12.199  1.5226  0.1150  0.1092
22782SOL     OW69786   3.419   5.461   4.736 -0.2343 -0.6543  0.2340
22782SOL    HW169787   3.329   5.477   4.765 -0.5781  0.8353 -1.4694
22782SOL    HW269788   3.467   5.539   4.764  0.0266 -0.4634 -0.7053
22783SOL     OW69789   2.758   2.817   7.729  0.4779 -0.0761  0.1206
22783SOL    HW169790   2.824   2.830   7.797  0.0992 -1.3855  0.7708
22783SOL    HW269791   2.682   2.867   7.759  0.3228 -0.6253  0.6542
22784SOL     OW69792   5.228   7.150   1.834 -0.0544 -0.1122 -0.1456
22784SOL    HW169793   5.238   7.232   1.786  1.8560 -0.1901  0.0348
22784SOL    HW269794   5.294   7.091   1.795  0.4372 -0.6857  1.4690
22785SOL     OW69795   6.368   0.269   3.542 -0.5876  0.2026  0.3498
22785SOL    HW169796   6.402   0.276   3.453  0.7909  0.7043  0.8876
22785SOL    HW269797   6.336   0.179   3.549 -0.6081  0.1276 -0.6049
22786SOL     OW69798   6.563   2.007   6.815  1.2607  0.0814 -0.1639
22786SOL    HW169799   6.579   1.923   6.774 -0.0214 -0.5349  0.5467
22786SOL    HW269800   6.606   2.001   6.901  0.0666 -0.3804  0.4321
22787SOL     OW69801   2.176   3.025  12.422 -0.5001  0.5998  0.3872
22787SOL    HW169802   2.102   2.970  12.445 -0.4436  0.2766 -0.2127
22787SOL    HW269803   2.197   3.002  12.332  0.9868 -0.0623  0.8748
22788SOL     OW69804   2.572   1.832   0.467  0.1786 -0.6128  0.1706
22788SOL    HW169805   2.512   1.801   0.400 -0.9042  0.1843  0.7241
22788SOL    HW269806   2.611   1.911   0.430 -0.5437 -0.0786  0.5050
22789SOL     OW69807   0.954   1.320   7.301  0.1833 -0.5572  0.1157
22789SOL    HW169808   0.912   1.363   7.226  0.8523 -1.3689 -0.7450
22789SOL    HW269809   0.945   1.227   7.282  0.0848 -0.7775  1.2166
22790SOL     OW69810   1.181   6.875   2.434 -0.7560 -0.0129 -0.3845
22790SOL    HW169811   1.101   6.922   2.409 -0.6003  0.0869 -0.6992
22790SOL    HW269812   1.171   6.788   2.394 -0.7235 -0.0124 -0.3926
22791SOL     OW69813   5.022   2.136   6.063  0.2730  0.1817  0.0057
22791SOL    HW169814   5.001   2.052   6.103 -0.3508 -0.1241 -0.9232
22791SOL    HW269815   5.037   2.195   6.136 -3.2860  0.2988  0.8204
22792SOL     OW69816   6.198   4.303   2.721 -0.2061 -0.5532  0.5824
22792SOL    HW169817   6.158   4.378   2.678  2.4346 -0.0875 -1.2917
22792SOL    HW269818   6.137   4.281   2.791 -2.6305  1.3293 -0.7638
22793SOL     OW69819   6.554   3.789   2.201  0.3767  0.2624 -0.0091
22793SOL    HW169820   6.557   3.865   2.259  2.5394 -0.2660  0.6503
22793SOL    HW269821   6.533   3.715   2.259  3.6597 -0.4514  0.4349
22794SOL     OW69822   7.721   7.332  10.632 -0.3955 -0.1876  0.3623
22794SOL    HW169823   7.760   7.416  10.610 -2.9418  0.9754 -0.0492
22794SOL    HW269824   7.701   7.339  10.726  0.5258 -0.8555  0.6201
22795SOL     OW69825   6.517   5.661   7.728 -0.5192 -0.5069  0.6178
22795SOL    HW169826   6.540   5.696   7.642 -0.4917 -0.8743  0.4707
22795SOL    HW269827   6.422   5.672   7.734 -0.6865 -1.4693  0.0712
22796SOL     OW69828   2.469   3.420   1.127 -0.1470  0.7687 -0.4981
22796SOL    HW169829   2.422   3.376   1.197 -1.5280  1.8419 -0.7059
22796SOL    HW269830   2.539   3.468   1.171  0.9895 -1.0414 -0.2078
22797SOL     OW69831   7.694   5.058   9.834 -0.0121 -0.5821 -0.1918
22797SOL    HW169832   7.690   4.999   9.758 -0.3317  1.4405 -1.8278
22797SOL    HW269833   7.619   5.116   9.823 -1.2610 -1.3984  2.7891
22798SOL     OW69834   2.582   0.861   3.390 -0.6366 -0.2390  0.7762
22798SOL    HW169835   2.622   0.786   3.433  0.5461  0.6337  1.2574
22798SOL    HW269836   2.642   0.882   3.318 -0.7284  0.5043  0.9118
22799SOL     OW69837   7.710   2.183   5.977 -0.1379  0.1301  0.3978
22799SOL    HW169838   7.795   2.183   6.022 -0.2755 -0.2544  0.6645
22799SOL    HW269839   7.732   2.183   5.884  0.1645 -0.7697  0.4591
22800SOL     OW69840   5.717   4.329   5.123 -0.2208  0.1230 -0.0943
22800SOL    HW169841   5.622   4.318   5.127 -0.3289  0.1020 -2.0404
22800SOL    HW269842   5.739   4.371   5.206 -1.8196 -0.5156  0.7071
22801SOL     OW69843   6.945   3.274   3.524  0.1433 -0.0297  0.4586
22801SOL    HW169844   6.870   3.272   3.465 -2.2313 -2.1118  3.2306
22801SOL    HW269845   6.950   3.365   3.553 -0.4029  0.4369 -0.8479
22802SOL     OW69846   7.422   5.984  10.042  0.3353 -0.1300 -0.3871
22802SOL    HW169847   7.335   5.953  10.069  0.1659  2.3248  2.5014
22802SOL    HW269848   7.404   6.066   9.995  1.0222  0.2428 -0.0255
22803SOL     OW69849   0.555   6.584  11.702  0.0588 -0.1877  0.5956
22803SOL    HW169850   0.650   6.589  11.716  0.0409  0.4085  0.5423
22803SOL    HW269851   0.546   6.543  11.616  0.3202  0.9551 -0.0058
22804SOL     OW69852   3.126   5.957   6.974  0.3947  0.1880  0.0444
22804SOL    HW169853   3.151   6.027   6.913  0.4080 -1.0593 -1.4367
22804SOL    HW269854   3.205   5.904   6.983 -0.1284 -0.6596 -0.2897
22805SOL     OW69855   1.600   2.760   3.432  0.1206 -0.3091  0.2551
22805SOL    HW169856   1.542   2.826   3.471 -0.0945 -0.2960 -0.0843
22805SOL    HW269857   1.591   2.773   3.338 -0.2836 -1.1249  0.1724
22806SOL     OW69858   5.372   5.757   3.811 -0.4070  0.7563 -0.1639
22806SOL    HW169859   5.290   5.712   3.793 -0.2537  0.4186 -0.0185
22806SOL    HW269860   5.374   5.830   3.749 -0.7944  0.7371 -0.1977
22807SOL     OW69861   3.092   7.888   1.601 -0.4252  0.7249  0.4097
22807SOL    HW169862   3.138   7.809   1.572  0.5181  1.9731 -1.7122
22807SOL    HW269863   3.148   7.926   1.668  0.2909  0.7808 -0.2058
22808SOL     OW69864   5.922   1.709   0.001  0.2561  0.2654 -0.2082
22808SOL    HW169865   6.017   1.699   0.016  0.1506  0.5331  0.7094
22808SOL    HW269866   5.915   1.786  -0.057  0.7116 -1.1288 -2.2172
22809SOL     OW69867   6.836   6.900   2.379 -0.5111  0.2001 -0.1811
22809SOL    HW169868   6.791   6.969   2.427 -1.2263 -1.1721  1.2341
22809SOL    HW269869   6.824   6.822   2.433  1.2026 -0.8122 -1.1660
22810SOL     OW69870   3.491   6.666   9.010 -0.0096 -0.2243  0.1692
22810SOL    HW169871   3.406   6.708   9.024  0.7380  1.8206 -0.9115
22810SOL    HW269872   3.527   6.712   8.934  1.6418 -1.7378 -0.0206
22811SOL     OW69873   2.948   3.809   1.060 -0.0341 -0.0948  0.2669
22811SOL    HW169874   3.022   3.755   1.086  0.2836  0.7842  1.2285
22811SOL    HW269875   2.919   3.851   1.141 -0.3547  1.0724 -0.4375
22812SOL     OW69876   1.236   0.044   1.361  0.3911 -0.3853  0.9946
22812SOL    HW169877   1.203   0.012   1.277  0.8515  1.8462 -0.0935
22812SOL    HW269878   1.240  -0.035   1.416 -2.1554 -1.5439 -0.2814
22813SOL     OW69879   1.449   2.478   5.822  0.1688  0.5013  0.0507
22813SOL    HW169880   1.398   2.526   5.886 -0.8511 -0.6781  0.1642
22813SOL    HW269881   1.517   2.539   5.793  0.8784  0.9660  2.4833
22814SOL     OW69882   2.677   6.780   2.262 -0.2082  0.2596  0.2871
22814SOL    HW169883   2.599   6.725   2.259  0.6022 -0.9258 -0.0527
22814SOL    HW269884   2.730   6.750   2.188  1.2367 -0.0215  1.3944
22815SOL     OW69885   3.114   7.351   2.971  0.7572  0.2887 -0.2018
22815SOL    HW169886   3.198   7.317   3.002  1.0768 -0.1996 -1.5302
22815SOL    HW269887   3.069   7.274   2.935 -1.5915 -0.1096  3.1495
22816SOL     OW69888   7.575   0.226  11.566  0.1659  0.4146  0.1948
22816SOL    HW169889   7.665   0.205  11.539  1.2959  2.9307  1.5524
22816SOL    HW269890   7.536   0.268  11.489 -0.0457 -1.1174 -0.5559
22817SOL     OW69891   0.441   7.655   9.799 -0.6328 -0.6680  0.3211
22817SOL    HW169892   0.503   7.618   9.862  1.5670 -0.8395 -1.8239
22817SOL    HW269893   0.483   7.735   9.767 -2.1981  0.0079 -0.1694
22818SOL     OW69894   5.421   1.557  11.663 -0.0064  0.3443 -0.5667
22818SOL    HW169895   5.484   1.619  11.700 -0.0683  0.5212 -0.7608
22818SOL    HW269896   5.437   1.560  11.568 -1.5924  1.8084 -0.8319
22819SOL     OW69897   2.672   5.794   7.582 -0.1475 -0.0098  0.3690
22819SOL    HW169898   2.743   5.857   7.567 -1.9651  1.6605 -1.7515
22819SOL    HW269899   2.625   5.828   7.658 -0.2931  0.4243  0.0858
22820SOL     OW69900   5.448   7.937   1.987 -0.5210 -0.4102 -0.6617
22820SOL    HW169901   5.463   7.849   2.022 -0.4463  0.5065  1.7834
22820SOL    HW269902   5.353   7.947   1.987 -0.4977 -0.2033 -0.1968
22821SOL     OW69903   1.209   4.497  10.912 -0.1791  0.2007 -0.3404
22821SOL    HW169904   1.223   4.447  10.993  1.2990  2.0364  0.5912
22821SOL    HW269905   1.226   4.588  10.936  1.0137  0.7406 -2.8745
22822SOL     OW69906   0.573   4.266  10.849 -0.2287 -0.1182 -0.1591
22822SOL    HW169907   0.550   4.292  10.938 -1.1572  0.8832 -0.6724
22822SOL    HW269908   0.500   4.295  10.795  1.3603  1.4499 -1.5915
22823SOL     OW69909   1.452   0.112   5.322  0.2404 -0.3810 -0.1540
22823SOL    HW169910   1.408   0.193   5.348  2.6041  1.1939 -0.7189
22823SOL    HW269911   1.540   0.140   5.296  1.1239 -3.1433 -0.4595
22824SOL     OW69912   7.570   5.819   4.417 -0.4980  0.4727  0.4193
22824SOL    HW169913   7.555   5.893   4.476  0.2831 -0.9246  2.4770
22824SOL    HW269914   7.497   5.821   4.356 -0.4869  2.9215  0.4121
22825SOL     OW69915   0.466   7.686  11.194 -0.0625 -0.0216 -0.4156
22825SOL    HW169916   0.453   7.699  11.101  2.6059  2.0469 -0.6238
22825SOL    HW269917   0.490   7.773  11.228 -0.1255 -0.8698  2.0379
22826SOL     OW69918   3.930   3.429   0.796 -0.5172 -0.2047  0.1954
22826SOL    HW169919   3.936   3.334   0.806 -0.9420 -0.1061  1.7113
22826SOL    HW269920   4.016   3.461   0.824 -0.6783 -0.0936  0.5647
22827SOL     OW69921   4.502   3.521   2.209 -0.0051  0.2673 -0.5057
22827SOL    HW169922   4.590   3.493   2.232  0.4760  1.5297 -0.7221
22827SOL    HW269923   4.445   3.479   2.273  0.7953 -0.2161 -0.1087
22828SOL     OW69924   5.097   5.549   6.777  0.1004  0.5730  0.0452
22828SOL    HW169925   5.058   5.635   6.791 -0.2271  0.5584 -0.7358
22828SOL    HW269926   5.033   5.501   6.725  1.2658  0.6769 -1.5872
22829SOL     OW69927   6.201   3.144   1.988 -0.1598 -0.0741  1.2934
22829SOL    HW169928   6.257   3.067   1.980 -0.8304 -0.4905  0.4064
22829SOL    HW269929   6.113   3.108   2.002 -0.7687  0.4226 -0.7956
22830SOL     OW69930   0.609   1.701  12.115  0.3062  0.6424  0.1902
22830SOL    HW169931   0.699   1.678  12.137  0.4341  1.2929  0.3828
22830SOL    HW269932   0.605   1.696  12.020 -0.4330 -2.8675  0.2768
22831SOL     OW69933   3.477   1.926   2.316  0.1547  0.5171  0.6595
22831SOL    HW169934   3.512   2.008   2.280  0.2172  0.2492  0.1027
22831SOL    HW269935   3.552   1.866   2.316 -0.2870 -0.0688 -0.5697
22832SOL     OW69936   3.729   3.259  10.520  0.6917 -0.1075  0.6772
22832SOL    HW169937   3.767   3.223  10.439 -1.4971 -0.8229 -0.1204
22832SOL    HW269938   3.793   3.324  10.549  1.9092 -0.3473 -1.2164
22833SOL     OW69939   5.285   1.572   3.348  0.0997  0.0440  0.5187
22833SOL    HW169940   5.200   1.529   3.334 -0.0445  0.7378 -1.0148
22833SOL    HW269941   5.347   1.500   3.356 -0.4019 -0.4804 -0.1092
22834SOL     OW69942   1.550   5.552   0.217 -0.2904 -0.1059  0.5455
22834SOL    HW169943   1.464   5.539   0.176 -0.3651 -0.6999  0.8757
22834SOL    HW269944   1.572   5.643   0.197 -0.8437 -0.0452  0.1702
22835SOL     OW69945   0.536   3.225  10.327 -0.7457  0.2660  0.0251
22835SOL    HW169946   0.571   3.297  10.275  0.7445 -1.0991 -0.9709
22835SOL    HW269947   0.564   3.245  10.417  1.4632 -0.0315 -0.5290
22836SOL     OW69948   4.451   6.161   4.902  0.2395  0.7444 -0.1962
22836SOL    HW169949   4.541   6.136   4.885 -0.3022 -2.7390  1.2208
22836SOL    HW269950   4.437   6.141   4.995 -2.0674  0.8615 -0.4487
22837SOL     OW69951   2.297   6.260   4.946 -0.1026  0.0012 -0.1870
22837SOL    HW169952   2.234   6.211   4.999  0.9588 -1.9881 -0.6211
22837SOL    HW269953   2.252   6.274   4.863 -1.1048  1.5125  0.5642
22838SOL     OW69954   5.639   4.484   2.472 -0.4907 -0.0117  0.1903
22838SOL    HW169955   5.711   4.446   2.421  0.6870  1.3227  0.7823
22838SOL    HW269956   5.585   4.409   2.498  0.8998 -1.0950  0.0376
22839SOL     OW69957   1.768   2.024   0.945 -0.0652  0.2620 -0.0032
22839SOL    HW169958   1.729   2.110   0.931 -1.9099 -0.4970  0.2187
22839SOL    HW269959   1.744   2.000   1.034 -1.9325 -1.5969 -0.9371
22840SOL     OW69960   7.799   1.207   0.718 -0.0364 -0.0935  0.2677
22840SOL    HW169961   7.809   1.200   0.813  1.6129 -0.2001  0.1202
22840SOL    HW269962   7.861   1.142   0.683  2.1534  2.4332 -0.8982
22841SOL     OW69963   2.906   2.714   0.106  0.0913 -0.0308 -0.1535
22841SOL    HW169964   2.916   2.690   0.198  1.7725  0.5751 -0.1524
22841SOL    HW269965   2.928   2.807   0.102 -0.4328  0.0763 -1.1079
22842SOL     OW69966   4.925   5.750   9.571  0.3766 -0.2303  0.1864
22842SOL    HW169967   4.891   5.665   9.545 -0.1286 -0.7321  2.2944
22842SOL    HW269968   4.857   5.812   9.546 -2.1619 -1.1717  3.9398
22843SOL     OW69969   2.911   6.407   2.028 -0.3703 -0.1415  0.3541
22843SOL    HW169970   2.848   6.363   1.971 -0.2116 -0.8223  0.6971
22843SOL    HW269971   2.932   6.488   1.982  0.2325 -0.9652 -0.8535
22844SOL     OW69972   3.481   7.302  10.856  0.4896 -0.3900 -0.4098
22844SOL    HW169973   3.443   7.215  10.868 -0.8634  0.3263  0.7267
22844SOL    HW269974   3.461   7.325  10.766  1.9920 -1.7505 -1.1457
22845SOL     OW69975   5.973   6.036   5.278  0.6386 -0.0565  0.1558
22845SOL    HW169976   6.039   5.990   5.330  0.3445  0.5096  1.0600
22845SOL    HW269977   5.890   6.001   5.309  0.4464  0.5038  0.2762
22846SOL     OW69978   4.270   3.836  12.236 -0.2634 -0.2413  0.2021
22846SOL    HW169979   4.203   3.822  12.304 -0.2128 -1.1667  0.0807
22846SOL    HW269980   4.286   3.748  12.201 -1.4318  0.3887 -2.1103
22847SOL     OW69981   4.879   4.514  10.219 -0.1407 -0.6990 -0.3624
22847SOL    HW169982   4.808   4.468  10.175  0.1013 -0.3800 -1.1140
22847SOL    HW269983   4.845   4.603  10.232  0.4748 -0.2532 -1.6564
22848SOL     OW69984   1.031   6.762   2.687  0.4160  0.1240  0.0471
22848SOL    HW169985   0.959   6.822   2.710  0.1814  0.1758 -0.7592
22848SOL    HW269986   1.089   6.815   2.632  0.6059 -0.1723 -0.0381
22849SOL     OW69987   5.671   2.654   8.009 -0.1294  0.7280 -0.1529
22849SOL    HW169988   5.633   2.598   8.076 -0.0866  0.7573 -0.1038
22849SOL    HW269989   5.737   2.706   8.055  0.9300 -0.2752 -0.4754
22850SOL     OW69990   0.740   5.599   8.239  0.4156 -0.9775 -0.7072
22850SOL    HW169991   0.774   5.512   8.259  1.4953 -0.2057  1.0554
22850SOL    HW269992   0.694   5.626   8.318  1.6598  0.7468 -0.5226
22851SOL     OW69993   5.336   0.388  10.446 -0.4920  0.5376  0.1325
22851SOL    HW169994   5.277   0.410  10.518  0.7016 -0.2564  1.3989
22851SOL    HW269995   5.374   0.304  10.470 -1.0095 -0.4078 -2.0677
22852SOL     OW69996   6.988   3.156   9.508 -0.5567 -0.0960 -0.2767
22852SOL    HW169997   6.897   3.145   9.536 -0.6490 -1.4808 -1.0231
22852SOL    HW269998   7.003   3.250   9.511 -2.3908  0.2800 -1.3166
22853SOL     OW69999   3.616   6.559   2.632 -0.2816  0.5819  0.0500
22853SOL    HW170000   3.680   6.628   2.613 -0.1656  0.2532 -0.7673
22853SOL    HW270001   3.644   6.524   2.717 -0.9704  2.2486  1.0218
22854SOL     OW70002   2.819   2.110   3.957  0.0141  0.2131  0.4582
22854SOL    HW170003   2.794   2.136   4.045  1.7482 -0.4695  1.2046
22854SOL    HW270004   2.821   2.015   3.959  0.0868  0.1882 -0.3199
22855SOL     OW70005   7.590   2.445   9.899 -0.0415 -0.1708  0.6562
22855SOL    HW170006   7.546   2.363   9.877 -0.4386  0.5325 -1.3086
22855SOL    HW270007   7.683   2.427   9.883 -0.1424 -0.1978  0.0924
22856SOL     OW70008   3.678   1.605   1.219  0.0982 -0.1769  1.1220
22856SOL    HW170009   3.756   1.556   1.246 -0.0570 -1.1462 -0.1469
22856SOL    HW270010   3.706   1.652   1.140 -0.5543 -0.4129  0.7448
22857SOL     OW70011   5.069   0.076  12.259 -0.6547 -0.1656 -0.0363
22857SOL    HW170012   4.999   0.079  12.324 -1.2093  0.5800 -0.6450
22857SOL    HW270013   5.104   0.165  12.256  0.4618 -0.5636  0.3888
22858SOL     OW70014   4.090   2.523   1.171 -0.7812 -0.0870 -0.1721
22858SOL    HW170015   4.159   2.458   1.160 -0.1915 -0.4108  3.8323
22858SOL    HW270016   4.133   2.596   1.216 -2.5337  0.7583  0.2377
22859SOL     OW70017   4.694   4.728  11.859  0.2471  0.0257 -0.3292
22859SOL    HW170018   4.604   4.737  11.891 -0.1755 -1.6967 -0.9309
22859SOL    HW270019   4.747   4.721  11.939 -0.1084  1.1905  0.0345
22860SOL     OW70020   4.328   6.350  12.330  0.1612 -0.3568  0.4367
22860SOL    HW170021   4.318   6.279  12.268 -1.1831 -0.9151  1.2300
22860SOL    HW270022   4.290   6.427  12.286  2.3412  0.1163 -0.7325
22861SOL     OW70023   3.790   1.591   0.030 -0.5902 -0.0307  0.3303
22861SOL    HW170024   3.733   1.515   0.045 -1.1747 -0.2828 -2.4289
22861SOL    HW270025   3.876   1.554   0.010 -0.3292  0.1599  1.0888
22862SOL     OW70026   3.888   0.108   1.257 -0.7176  0.2914 -0.1532
22862SOL    HW170027   3.875   0.017   1.285 -1.7105  1.2928  2.9913
22862SOL    HW270028   3.977   0.129   1.287 -1.1571  0.8727  0.7695
22863SOL     OW70029   5.959   0.621   4.077 -0.2708 -0.1176  0.1620
22863SOL    HW170030   5.917   0.553   4.129 -1.3888  0.4210  0.0019
22863SOL    HW270031   5.959   0.588   3.987 -1.2850  0.2775 -0.0028
22864SOL     OW70032   3.820   4.186  10.306  0.2283 -0.7591 -0.5529
22864SOL    HW170033   3.877   4.149  10.238 -0.1149  0.3016 -1.4478
22864SOL    HW270034   3.732   4.176  10.271  0.0792  0.2269 -0.4813
22865SOL     OW70035   0.188   2.589   6.147 -0.1250  0.3110 -0.3055
22865SOL    HW170036   0.203   2.626   6.233 -0.9319 -0.0488 -0.0034
22865SOL    HW270037   0.253   2.519   6.139 -0.5321 -0.1393  0.3091
22866SOL     OW70038   6.568   3.242  12.038 -0.7144 -0.1424  0.3239
22866SOL    HW170039   6.642   3.302  12.033 -0.4245 -0.4994  0.2937
22866SOL    HW270040   6.540   3.247  12.130  1.0186 -1.9767  1.0263
22867SOL     OW70041   2.406   1.695   2.329  0.7213  0.0895  0.3431
22867SOL    HW170042   2.396   1.629   2.397 -0.8526 -0.8911 -0.7734
22867SOL    HW270043   2.491   1.735   2.347  0.9965 -1.1180  2.0005
22868SOL     OW70044   6.012   7.898   1.574 -0.6407 -0.1380  0.2970
22868SOL    HW170045   5.990   7.865   1.487  0.4442  0.0566 -0.0719
22868SOL    HW270046   6.023   7.992   1.562  0.2004 -0.2023  0.4786
22869SOL     OW70047   5.533   2.831   2.499  0.2984 -0.5221  0.2195
22869SOL    HW170048   5.526   2.923   2.525  0.6895 -0.6537  0.8265
22869SOL    HW270049   5.453   2.791   2.532  1.7515 -1.1610  3.3924
22870SOL     OW70050   4.040   4.594  10.058  0.4242  0.0751 -0.6210
22870SOL    HW170051   4.033   4.533  10.131  0.4608  0.5202 -0.2396
22870SOL    HW270052   3.989   4.554   9.988  0.7750 -0.5808 -0.5069
22871SOL     OW70053   5.317   4.648   9.867  0.0317 -0.4694  0.0103
22871SOL    HW170054   5.249   4.711   9.891  0.9185 -0.1644  1.9305
22871SOL    HW270055   5.285   4.564   9.900  0.2648 -0.4407  0.3203
22872SOL     OW70056   0.592   3.591   2.418 -0.3041 -0.3205 -0.0582
22872SOL    HW170057   0.632   3.536   2.485 -1.1414 -0.0623  0.6751
22872SOL    HW270058   0.498   3.573   2.425 -0.5162  0.6039 -0.3396
22873SOL     OW70059   1.238   3.621   5.872 -0.2081 -0.2009 -0.3024
22873SOL    HW170060   1.196   3.621   5.958  1.5637  0.9041  0.6337
22873SOL    HW270061   1.254   3.529   5.853 -1.9151 -0.5641 -0.1573
22874SOL     OW70062   6.512   7.731   6.117 -0.3808  0.2757  0.3213
22874SOL    HW170063   6.556   7.814   6.139 -0.1311  0.9249 -2.2676
22874SOL    HW270064   6.505   7.685   6.200  3.4181  0.9919  1.2144
22875SOL     OW70065   2.220   0.458  10.888  0.8122  0.0170 -0.2421
22875SOL    HW170066   2.276   0.431  10.961  2.1330  1.0096 -0.8438
22875SOL    HW270067   2.137   0.481  10.929  1.5025  0.4885  0.9452
22876SOL     OW70068   6.608   0.423  10.011  0.6454 -0.3967 -0.0317
22876SOL    HW170069   6.528   0.462  10.045  0.1434  0.1080 -1.6940
22876SOL    HW270070   6.613   0.454   9.920  1.6223 -2.1093 -0.6028
22877SOL     OW70071   2.448   6.800   0.491  0.3993  0.5548 -0.4915
22877SOL    HW170072   2.528   6.852   0.481  0.1965  1.3918  1.5667
22877SOL    HW270073   2.478   6.709   0.491  1.6699  0.8787  1.8863
22878SOL     OW70074   4.470   2.291   9.654  0.1020  0.0629  0.1401
22878SOL    HW170075   4.425   2.238   9.588 -0.1363 -1.0168  1.1327
22878SOL    HW270076   4.400   2.338   9.698  0.2656  0.8274 -0.4132
22879SOL     OW70077   3.742   7.036   4.189 -0.2195 -0.3595 -0.0404
22879SOL    HW170078   3.708   7.026   4.101  0.0800 -0.2711 -0.1653
22879SOL    HW270079   3.760   7.130   4.198  0.7840 -0.5246 -0.2673
22880SOL     OW70080   1.569   5.931   2.279 -0.0486 -0.3267 -0.5767
22880SOL    HW170081   1.555   5.986   2.202 -0.6979  0.0385 -0.2057
22880SOL    HW270082   1.503   5.861   2.271  0.8754 -1.1708 -1.1319
22881SOL     OW70083   4.746   1.775   8.541 -0.0508  0.1570 -0.2092
22881SOL    HW170084   4.783   1.737   8.621  0.7981  1.5055  0.0610
22881SOL    HW270085   4.693   1.704   8.504 -0.0719 -0.6552  1.2856
22882SOL     OW70086   3.092   2.102   4.744 -0.4119  0.8088 -0.1827
22882SOL    HW170087   3.099   2.144   4.658  0.4452 -0.6073 -0.8546
22882SOL    HW270088   3.077   2.009   4.723 -0.5735  0.5053  1.2128
22883SOL     OW70089   4.521   4.697   9.139 -0.1321 -0.0819 -0.2839
22883SOL    HW170090   4.506   4.680   9.046 -0.2963 -1.5783 -0.0086
22883SOL    HW270091   4.452   4.647   9.183  1.4058 -1.3790  0.7216
22884SOL     OW70092   5.262   0.398   3.801  0.5534  0.1426 -0.0944
22884SOL    HW170093   5.185   0.361   3.758  0.8014  0.8199 -1.1475
22884SOL    HW270094   5.228   0.445   3.876 -0.1636  1.1075 -0.9936
22885SOL     OW70095   6.655   1.547   9.593 -0.6519 -0.4039 -0.1750
22885SOL    HW170096   6.702   1.565   9.675 -0.8672 -2.0205  0.3355
22885SOL    HW270097   6.628   1.634   9.562  2.2739  0.5665 -0.3052
22886SOL     OW70098   7.750   6.591   4.307  0.0191  0.4097 -0.0304
22886SOL    HW170099   7.700   6.592   4.226 -1.2598  0.7387  0.7334
22886SOL    HW270100   7.703   6.530   4.364  0.8717  0.2189  0.4926
22887SOL     OW70101   6.954   4.526   4.358 -0.7342  0.1933 -0.3164
22887SOL    HW170102   6.861   4.511   4.371 -0.7950 -0.1349 -1.1003
22887SOL    HW270103   6.983   4.566   4.440 -1.5530  0.2771 -0.0576
22888SOL     OW70104   5.159   0.717   4.317 -0.4204  0.4612 -0.5075
22888SOL    HW170105   5.164   0.703   4.411 -0.3327  0.9007 -0.4448
22888SOL    HW270106   5.230   0.664   4.281 -1.0879 -0.5167 -0.4236
22889SOL     OW70107   1.690   7.341   0.260  0.2917  0.0046  0.0468
22889SOL    HW170108   1.707   7.329   0.353  0.6115  1.2637  0.1562
22889SOL    HW270109   1.734   7.422   0.237 -2.0583  1.1871 -0.5707
22890SOL     OW70110   2.978   4.376   7.299 -0.4802  0.3930 -0.2931
22890SOL    HW170111   2.938   4.296   7.267  1.0962 -0.6459  0.1834
22890SOL    HW270112   2.967   4.372   7.394  2.0605 -0.7636  0.0393
22891SOL     OW70113   3.137   4.966   3.701  0.0980  0.2118 -0.4549
22891SOL    HW170114   3.228   4.989   3.722  0.2293 -1.6533  1.3282
22891SOL    HW270115   3.098   4.943   3.785 -1.4792 -0.8712 -1.4351
22892SOL     OW70116   2.331   3.072   7.969 -0.1920 -0.5009 -0.3833
22892SOL    HW170117   2.259   3.093   7.910 -0.3899  2.6105  0.7762
22892SOL    HW270118   2.385   3.151   7.971  1.5512 -1.6286  1.1808
22893SOL     OW70119   0.288   6.672   6.143 -0.0567  0.1550 -0.3024
22893SOL    HW170120   0.246   6.734   6.203  0.0200  0.0893 -0.1802
22893SOL    HW270121   0.215   6.631   6.096 -0.0861  0.6062 -0.6523
22894SOL     OW70122   3.496   7.342   1.469 -0.2568 -0.5710  0.3254
22894SOL    HW170123   3.523   7.382   1.551  0.2496 -1.1525  0.4540
22894SOL    HW270124   3.404   7.366   1.458  0.1207  0.9018  0.2192
22895SOL     OW70125   2.610   6.305   9.941  0.4999 -0.4897 -0.1271
22895SOL    HW170126   2.556   6.384   9.947 -1.0479 -1.1224 -3.4705
22895SOL    HW270127   2.688   6.334   9.893  0.8891 -0.5947  0.4327
22896SOL     OW70128   2.441   4.182  12.402 -0.2334 -0.1019  0.8371
22896SOL    HW170129   2.522   4.139  12.430  0.2943  1.0948  1.1869
22896SOL    HW270130   2.374   4.148  12.462 -0.0809 -1.3543  0.3346
22897SOL     OW70131   2.709   1.009  12.351 -0.0214 -0.1610  0.0507
22897SOL    HW170132   2.667   1.025  12.435  0.4265  0.0137  0.2420
22897SOL    HW270133   2.690   1.087  12.299 -0.7225 -0.4785 -0.1923
22898SOL     OW70134   1.435   6.139   1.495 -0.0420  0.1597 -0.5860
22898SOL    HW170135   1.408   6.075   1.429 -1.3554  1.7438 -1.6393
22898SOL    HW270136   1.495   6.198   1.450  1.9222 -0.7830  0.6294
22899SOL     OW70137   4.121   6.586  10.554  0.5752 -0.6367  0.0596
22899SOL    HW170138   4.204   6.614  10.592  1.1577  0.8333 -2.1393
22899SOL    HW270139   4.060   6.657  10.575  0.4856 -0.5972 -0.3276
22900SOL     OW70140   6.644   7.278   5.180  0.3762  0.2296  0.3375
22900SOL    HW170141   6.619   7.286   5.272 -0.0246 -1.9586  0.4600
22900SOL    HW270142   6.628   7.187   5.158 -0.4123  0.8989 -2.1813
22901SOL     OW70143   6.544   6.020   5.552 -0.5684 -0.1131 -0.0441
22901SOL    HW170144   6.572   6.085   5.617 -0.5689 -0.2719  0.1167
22901SOL    HW270145   6.469   6.061   5.508  0.7205  0.8624 -1.3884
22902SOL     OW70146   5.290   2.123   2.288 -0.4621  0.2219  0.0135
22902SOL    HW170147   5.283   2.176   2.208 -1.5154  1.0524  0.6289
22902SOL    HW270148   5.378   2.140   2.320 -0.1288  0.1033 -0.8240
22903SOL     OW70149   6.806   4.629   5.585 -0.1188 -0.1401 -0.1532
22903SOL    HW170150   6.808   4.661   5.676 -2.4386  0.1912 -0.1583
22903SOL    HW270151   6.878   4.675   5.542  1.2772 -0.6021  1.5916
22904SOL     OW70152   5.552   2.024   9.876  0.1208 -0.5133  0.7473
22904SOL    HW170153   5.590   1.969   9.808  0.2817 -1.3492  1.4976
22904SOL    HW270154   5.613   2.097   9.885  0.2817 -0.5812  0.2544
22905SOL     OW70155   2.137   4.396   7.848  0.3878  0.7780  0.0877
22905SOL    HW170156   2.116   4.308   7.881  1.8237  1.0496  1.9302
22905SOL    HW270157   2.229   4.408   7.870  0.7951  1.9736 -2.0354
22906SOL     OW70158   1.874   7.898   9.041 -0.1847 -0.6880 -0.4261
22906SOL    HW170159   1.800   7.842   9.064 -1.4302  0.4281 -1.5341
22906SOL    HW270160   1.901   7.938   9.124 -0.1355 -1.8545  0.1494
22907SOL     OW70161   1.601   6.819   1.239  0.4114  0.0331 -0.5125
22907SOL    HW170162   1.691   6.789   1.248  0.1922 -0.3709  0.4215
22907SOL    HW270163   1.588   6.827   1.145  1.3401 -0.1420 -0.6681
22908SOL     OW70164   6.777   3.761   9.013  0.1686 -0.1653  0.2957
22908SOL    HW170165   6.793   3.786   8.922 -2.2925 -1.9769 -0.7679
22908SOL    HW270166   6.766   3.666   9.010  0.1875 -0.2802  2.5212
22909SOL     OW70167   2.170   5.795  11.046 -0.3300  0.0165  0.1082
22909SOL    HW170168   2.128   5.863  10.992  0.4281 -0.8971 -1.7011
22909SOL    HW270169   2.121   5.715  11.026  0.7978 -0.5984 -0.3024
22910SOL     OW70170   5.957   3.966   6.419 -0.0856  0.0268 -0.1909
22910SOL    HW170171   5.898   3.998   6.352 -0.6379  2.1163  1.1861
22910SOL    HW270172   5.987   4.045   6.465 -2.6303 -1.2594  4.3903
22911SOL     OW70173   3.419   5.409   1.808  0.0537  0.0809 -0.1645
22911SOL    HW170174   3.455   5.331   1.849 -0.9309 -1.3472 -1.8985
22911SOL    HW270175   3.438   5.398   1.715 -1.1408  1.3519 -0.5877
22912SOL     OW70176   4.525   7.423   9.704 -0.1718  0.1318 -0.5095
22912SOL    HW170177   4.434   7.404   9.681  0.3172  0.6978 -3.3008
22912SOL    HW270178   4.530   7.519   9.704  0.4467  0.1042 -0.5332
22913SOL     OW70179   5.114   2.582   9.202 -0.0754 -0.1629  0.1919
22913SOL    HW170180   5.160   2.663   9.224 -1.7817  0.8616  0.1813
22913SOL    HW270181   5.039   2.610   9.149 -0.1092 -1.8662 -0.7457
22914SOL     OW70182   3.444   2.656   8.542  0.3235 -0.0230  0.3512
22914SOL    HW170183   3.465   2.565   8.522  0.2921 -0.1222  0.7663
22914SOL    HW270184   3.396   2.652   8.625  1.1399  0.4435  0.8632
22915SOL     OW70185   7.658   7.932   4.489 -0.6275 -0.4337  0.0889
22915SOL    HW170186   7.584   7.963   4.543 -1.5227 -0.3715 -1.1173
22915SOL    HW270187   7.616   7.891   4.414  0.5929 -1.4201 -0.0762
22916SOL     OW70188   5.139   0.587   6.686  0.2758  0.2415  0.6892
22916SOL    HW170189   5.080   0.513   6.687  0.4641  0.0944  1.3586
22916SOL    HW270190   5.083   0.664   6.695 -0.2010  0.4189 -2.6301
22917SOL     OW70191   0.331   3.463   6.176  0.5233  0.0602  0.4174
22917SOL    HW170192   0.410   3.459   6.123  0.9556 -1.7160  1.1209
22917SOL    HW270193   0.260   3.477   6.113  1.0604 -1.6342 -0.6275
22918SOL     OW70194   2.766   3.246  10.834 -0.2262 -0.1279  0.1028
22918SOL    HW170195   2.849   3.254  10.880 -0.2905 -1.4640  0.4822
22918SOL    HW270196   2.758   3.328  10.784  0.8812  0.3906  0.7447
22919SOL     OW70197   0.857   1.021   0.371 -0.3092  0.2004 -0.1846
22919SOL    HW170198   0.923   1.075   0.327 -0.9324  1.8266  0.7921
22919SOL    HW270199   0.805   0.984   0.300  0.6278  0.2031 -0.9021
22920SOL     OW70200   1.396   6.749  11.478  0.3806 -0.3988  0.1355
22920SOL    HW170201   1.425   6.683  11.541 -1.1615  0.2568  1.5988
22920SOL    HW270202   1.336   6.701  11.420 -1.1325 -0.2396  1.5011
22921SOL     OW70203   2.316   1.032   2.663  0.1063  0.4318 -0.1269
22921SOL    HW170204   2.359   0.946   2.671 -0.7030  0.1359  1.7281
22921SOL    HW270205   2.265   1.026   2.582 -0.3593 -1.0655  0.2366
22922SOL     OW70206   1.840   4.529   8.185  0.3733  0.2986  0.0331
22922SOL    HW170207   1.756   4.491   8.209 -0.4028  2.0079  0.1637
22922SOL    HW270208   1.894   4.519   8.263 -0.7005  1.8218  1.0398
22923SOL     OW70209   0.013   1.648   2.511  0.1314 -0.0884 -0.1179
22923SOL    HW170210   0.040   1.569   2.463 -2.1614 -0.4809 -0.9194
22923SOL    HW270211  -0.058   1.684   2.458 -0.4706  1.1708  1.4826
22924SOL     OW70212   7.177   5.955   8.009 -0.1012 -0.1848 -0.2004
22924SOL    HW170213   7.195   5.863   8.029  2.0668 -0.1016 -1.4243
22924SOL    HW270214   7.092   5.955   7.967 -0.6843 -1.4548  0.9028
22925SOL     OW70215   2.970   1.017  12.325 -0.0715  0.1586 -0.0654
22925SOL    HW170216   2.875   1.021  12.317  0.0485  0.4261 -1.8064
22925SOL    HW270217   2.994   1.098  12.369 -0.6163  0.3083 -0.0445
22926SOL     OW70218   4.949   5.776   2.181  0.4074  0.1630  0.0352
22926SOL    HW170219   4.951   5.772   2.086  2.3877 -2.7431  0.0694
22926SOL    HW270220   5.037   5.751   2.208 -0.6416 -1.1451  2.6453
22927SOL     OW70221   0.114   2.983   4.618 -0.6184 -0.1351  0.4926
22927SOL    HW170222   0.086   2.908   4.670 -1.3662 -0.3748 -0.2501
22927SOL    HW270223   0.201   2.960   4.586 -1.1295 -0.9852 -0.3117
22928SOL     OW70224   5.810   1.729   6.654  0.4040 -0.1096  0.0117
22928SOL    HW170225   5.862   1.649   6.661 -0.5545 -0.8446 -1.0233
22928SOL    HW270226   5.721   1.702   6.679 -0.0044  0.5419 -0.7095
22929SOL     OW70227   5.248   4.631   3.925 -0.3246  0.0739 -0.1074
22929SOL    HW170228   5.168   4.665   3.884 -0.2164 -0.3700 -0.7033
22929SOL    HW270229   5.233   4.642   4.019 -1.8375 -1.5725 -0.1032
22930SOL     OW70230   7.826   7.081   0.491 -0.7178  0.0140  0.1556
22930SOL    HW170231   7.895   7.138   0.459 -1.0939  0.6557  0.4699
22930SOL    HW270232   7.773   7.061   0.414 -0.4667 -0.0881  0.0064
22931SOL     OW70233   3.836   0.363   1.145  0.2492 -0.1109 -0.2173
22931SOL    HW170234   3.829   0.270   1.168  1.2674 -0.4691 -1.2291
22931SOL    HW270235   3.919   0.369   1.097 -0.9759  0.8195 -2.3843
22932SOL     OW70236   0.987   1.383  10.685 -0.1546  1.0010 -0.4486
22932SOL    HW170237   1.075   1.417  10.701  0.2964  0.1974 -1.2013
22932SOL    HW270238   0.981   1.305  10.740  0.2064  0.1175 -1.6411
22933SOL     OW70239   2.969   0.279   0.415  0.0271  0.4222 -0.5010
22933SOL    HW170240   3.023   0.201   0.399 -1.3924 -0.7205  0.0803
22933SOL    HW270241   2.881   0.245   0.428 -0.5499  2.0972  0.2550
22934SOL     OW70242   2.639   2.973   8.737  0.0672 -0.5858  0.0306
22934SOL    HW170243   2.675   3.060   8.721  0.5867 -0.7963  0.0362
22934SOL    HW270244   2.635   2.933   8.650 -0.4658 -0.4478 -0.0125
22935SOL     OW70245   7.807   3.190   2.383  0.4999 -0.0712 -0.3223
22935SOL    HW170246   7.885   3.182   2.438 -0.2162 -0.9055  0.6190
22935SOL    HW270247   7.761   3.267   2.419 -0.0725 -0.7397  0.4130
22936SOL     OW70248   2.884   2.214   5.266 -0.7918  0.0393  0.4302
22936SOL    HW170249   2.835   2.207   5.185 -1.5306  0.4845  0.8300
22936SOL    HW270250   2.957   2.273   5.246 -1.8315  1.3974  0.4733
22937SOL     OW70251   1.158   2.820   9.656 -0.4992  0.6018 -0.2255
22937SOL    HW170252   1.082   2.810   9.713 -0.0443  0.0889  0.3112
22937SOL    HW270253   1.130   2.784   9.572 -0.5445 -0.4932  0.2469
22938SOL     OW70254   3.252   4.287  11.073 -0.0267  0.2244 -0.0086
22938SOL    HW170255   3.339   4.296  11.110 -0.3634  0.4411  0.7427
22938SOL    HW270256   3.265   4.236  10.993  0.9512  1.2675 -0.5488
22939SOL     OW70257   6.293   5.377   5.149 -0.2013 -0.3162 -0.3231
22939SOL    HW170258   6.319   5.336   5.232 -0.3416  1.8132  0.8440
22939SOL    HW270259   6.201   5.352   5.138 -0.8904  1.1917  1.4124
22940SOL     OW70260   5.721   1.123   5.439  0.2063 -0.2167 -0.1800
22940SOL    HW170261   5.669   1.067   5.382 -2.2753 -2.5273  3.8855
22940SOL    HW270262   5.810   1.088   5.432  0.1303 -0.1339 -2.7345
22941SOL     OW70263   4.614   7.281  11.119 -0.0701 -0.5637  0.2083
22941SOL    HW170264   4.637   7.364  11.162  0.2235 -0.6385  0.1975
22941SOL    HW270265   4.534   7.301  11.070  0.1483 -0.2098 -0.0142
22942SOL     OW70266   7.826   0.913  11.525 -0.3560 -0.1715  0.5833
22942SOL    HW170267   7.747   0.910  11.580 -0.2834 -1.2093  0.6337
22942SOL    HW270268   7.793   0.924  11.436 -0.5149  0.3802  0.7050
22943SOL     OW70269   6.498   4.242   6.053  0.5338  0.7032  0.4411
22943SOL    HW170270   6.550   4.206   6.126 -0.3488  0.2527  0.8656
22943SOL    HW270271   6.507   4.337   6.063 -0.6919  0.7040  2.0156
22944SOL     OW70272   6.713   7.932   9.094  0.8695  0.0488 -0.2440
22944SOL    HW170273   6.679   7.842   9.099 -0.5924  0.6391  1.5746
22944SOL    HW270274   6.637   7.987   9.113  1.8078  1.6778 -1.0101
22945SOL     OW70275   7.186   7.370  11.218  0.1533 -0.4580  0.2054
22945SOL    HW170276   7.220   7.341  11.134 -0.1456 -0.8337  0.2096
22945SOL    HW270277   7.167   7.463  11.205 -0.3024 -0.6115 -0.2836
22946SOL     OW70278   7.269   5.517  11.217  0.6347  0.0437 -1.0483
22946SOL    HW170279   7.363   5.515  11.195  0.9219  0.4285  0.0847
22946SOL    HW270280   7.264   5.474  11.303  0.0019  1.5377 -0.3105
22947SOL     OW70281   6.694   1.878   2.516  0.1963 -0.2571  0.1968
22947SOL    HW170282   6.730   1.941   2.578  5.0560 -2.1371 -0.2718
22947SOL    HW270283   6.624   1.925   2.472  1.0013  3.4491  2.4549
22948SOL     OW70284   7.972   3.987   8.460  0.2971 -0.0896  0.6025
22948SOL    HW170285   7.930   3.912   8.418  0.2814  0.0206  0.4187
22948SOL    HW270286   8.066   3.973   8.445  0.2834  0.0182  0.4147
22949SOL     OW70287   1.447   2.559   9.935  0.2138 -0.2227 -0.1110
22949SOL    HW170288   1.354   2.542   9.951 -0.3679  1.6170 -1.1938
22949SOL    HW270289   1.449   2.646   9.894  2.5580  0.6453  1.6101
22950SOL     OW70290   7.855   2.032   4.971 -0.3548 -0.4600 -0.0741
22950SOL    HW170291   7.844   2.004   5.062  0.9073  1.1045  0.5940
22950SOL    HW270292   7.826   2.123   4.970  1.6375  0.2116 -0.7458
22951SOL     OW70293   0.922   3.168   1.044  0.4055 -0.0128 -0.3000
22951SOL    HW170294   0.859   3.161   0.972  0.5113 -0.0238 -0.3908
22951SOL    HW270295   0.897   3.249   1.088  0.3901  0.0358 -0.3962
22952SOL     OW70296   2.450   2.271   5.570  0.2976 -0.6419  0.2235
22952SOL    HW170297   2.424   2.288   5.661 -3.3026 -2.3420 -0.3271
22952SOL    HW270298   2.435   2.354   5.525 -0.3161 -0.4757  0.7227
22953SOL     OW70299   2.356   5.873   2.953 -0.4077  0.5815 -0.1623
22953SOL    HW170300   2.379   5.951   3.003  1.2776  0.4298 -0.6129
22953SOL    HW270301   2.293   5.904   2.888 -0.0636  1.4884 -0.0807
22954SOL     OW70302   1.295   5.364   2.679 -0.1601 -0.1223  0.2882
22954SOL    HW170303   1.261   5.318   2.603 -1.6619  3.1289 -1.2098
22954SOL    HW270304   1.236   5.341   2.750 -0.7730 -0.5973 -0.3625
22955SOL     OW70305   1.904   4.231   3.719 -0.2820  0.1333 -0.1609
22955SOL    HW170306   1.987   4.192   3.692 -1.2231 -0.7147 -2.0330
22955SOL    HW270307   1.846   4.156   3.732 -0.6591  0.6880  1.6469
22956SOL     OW70308   3.584   6.118   7.744 -0.1439 -0.0393  0.3239
22956SOL    HW170309   3.505   6.171   7.733 -1.3253 -1.9278 -0.9467
22956SOL    HW270310   3.610   6.130   7.835 -3.3377 -1.1738  1.5160
22957SOL     OW70311   6.655   3.455   9.002  0.1049  0.0017  0.1234
22957SOL    HW170312   6.681   3.398   9.075 -0.8682 -0.7543 -0.0999
22957SOL    HW270313   6.568   3.486   9.026  0.4205  1.0308  0.0077
22958SOL     OW70314   5.347   5.260   6.892  0.2155 -0.1226  0.3825
22958SOL    HW170315   5.297   5.329   6.936  1.5135  0.9929  0.1570
22958SOL    HW270316   5.418   5.305   6.848 -0.1202 -1.3842 -1.5951
22959SOL     OW70317   1.261   0.659   8.347  0.3259 -0.1956  0.2963
22959SOL    HW170318   1.349   0.668   8.312  0.1051 -1.2009 -0.5740
22959SOL    HW270319   1.221   0.745   8.333  1.0013  0.1173  0.2429
22960SOL     OW70320   3.676   7.315   3.063  0.3756 -0.0365 -0.4870
22960SOL    HW170321   3.653   7.360   3.144 -1.2260  0.0684 -0.9605
22960SOL    HW270322   3.657   7.378   2.993 -0.9180 -1.0341 -1.0909
22961SOL     OW70323   3.365   2.644   4.209  0.3446  0.2163 -0.4581
22961SOL    HW170324   3.385   2.690   4.128  1.5582  0.2979 -0.1367
22961SOL    HW270325   3.351   2.713   4.273  2.6166  0.1936  0.1303
22962SOL     OW70326   1.345   1.017   1.228  0.2080 -0.2305  0.4433
22962SOL    HW170327   1.386   0.933   1.247  0.4978 -0.1552  0.1621
22962SOL    HW270328   1.281   0.998   1.159  0.1462 -0.2528  0.5069
22963SOL     OW70329   1.216   4.446   1.943 -0.0436 -0.6078  0.0534
22963SOL    HW170330   1.268   4.523   1.967 -4.0260  2.6923 -0.7368
22963SOL    HW270331   1.158   4.432   2.018 -0.4711 -1.8284 -0.4887
22964SOL     OW70332   7.664   5.420   6.730 -0.2252  0.2121  0.4532
22964SOL    HW170333   7.577   5.456   6.710  0.6285  1.3734 -1.3745
22964SOL    HW270334   7.672   5.344   6.672  0.1959  0.4335  0.2203
22965SOL     OW70335   6.819   3.388   5.154  0.3155  0.4078 -0.7283
22965SOL    HW170336   6.847   3.375   5.245 -1.7178  0.0720 -0.0959
22965SOL    HW270337   6.840   3.306   5.111  0.1361  0.0928 -0.2292
22966SOL     OW70338   2.542   4.491  12.420 -0.1803  0.2931 -0.6756
22966SOL    HW170339   2.620   4.468  12.471 -0.7072  0.0189  0.0243
22966SOL    HW270340   2.548   4.586  12.407  0.3861  0.2379 -0.8274
22967SOL     OW70341   0.675   4.621  11.001  0.2662 -0.1892 -0.3095
22967SOL    HW170342   0.750   4.644  11.056  1.3929  1.8372 -2.5187
22967SOL    HW270343   0.622   4.701  10.997 -0.9481 -0.9693 -0.4465
22968SOL     OW70344   7.611   5.274   0.847 -0.4825  0.1907  0.3861
22968SOL    HW170345   7.679   5.225   0.800 -0.5286  0.0764  0.4403
22968SOL    HW270346   7.660   5.340   0.897 -0.4857  0.9595 -0.5809
22969SOL     OW70347   0.739   1.919   9.253 -0.3630 -0.3744 -0.1753
22969SOL    HW170348   0.673   1.876   9.199 -1.4252  1.8821 -0.7919
22969SOL    HW270349   0.819   1.917   9.200 -0.7513 -0.3676 -0.7714
22970SOL     OW70350   7.945   3.911  11.793 -0.2549 -0.0345  0.3872
22970SOL    HW170351   7.857   3.930  11.760 -0.1354  1.0231  0.6480
22970SOL    HW270352   7.939   3.929  11.887 -0.2965 -1.9323  0.7818
22971SOL     OW70353   4.482   5.702   4.588 -0.3333 -0.6355 -0.2109
22971SOL    HW170354   4.478   5.769   4.519  0.0544  0.3597  0.7072
22971SOL    HW270355   4.492   5.619   4.540  1.1303  0.1422 -1.3371
22972SOL     OW70356   5.397   7.432   9.772  0.3148 -0.4456  0.8692
22972SOL    HW170357   5.395   7.486   9.851  0.6024 -0.0116  0.5856
22972SOL    HW270358   5.307   7.406   9.757  0.0192  0.7383  0.4794
22973SOL     OW70359   2.785   0.137   6.309  0.5062  0.0902 -0.2066
22973SOL    HW170360   2.874   0.105   6.294 -0.3865 -2.7011 -0.2602
22973SOL    HW270361   2.731   0.082   6.253 -1.5405 -0.5503  2.2175
22974SOL     OW70362   5.695   1.545   4.855  0.5753  0.3908  0.3107
22974SOL    HW170363   5.672   1.602   4.782 -0.0892  0.7539  0.7988
22974SOL    HW270364   5.616   1.539   4.908  0.8257 -0.4761  0.6121
22975SOL     OW70365   7.213   3.405   4.999 -0.0136  0.2396  0.5991
22975SOL    HW170366   7.120   3.426   5.005 -0.0637 -0.4678  3.8165
22975SOL    HW270367   7.243   3.399   5.090  2.8603 -1.0049 -0.3069
22976SOL     OW70368   0.488   7.636   8.530 -0.4100 -0.3365  0.2543
22976SOL    HW170369   0.467   7.664   8.441  0.2987 -0.7909 -0.0660
22976SOL    HW270370   0.404   7.634   8.575 -0.8030 -0.3080 -0.4641
22977SOL     OW70371   4.844   3.791   2.140 -0.1204  0.1659 -0.0278
22977SOL    HW170372   4.919   3.731   2.133  0.2888  0.7585 -0.9944
22977SOL    HW270373   4.786   3.750   2.203  1.0029 -0.3317  0.7099
22978SOL     OW70374   3.969   2.879   3.701 -0.1893 -0.0515  0.2286
22978SOL    HW170375   3.967   2.974   3.711  0.7059 -0.1459  1.5554
22978SOL    HW270376   4.060   2.860   3.677  0.0590 -0.7000  1.6330
22979SOL     OW70377   7.870   6.765  12.027  0.0098 -0.6986 -0.6339
22979SOL    HW170378   7.856   6.860  12.028 -2.2147 -0.9510  1.3459
22979SOL    HW270379   7.787   6.729  11.996  0.2331 -2.0457  0.2697
22980SOL     OW70380   2.478   0.902   0.289 -0.0679  0.1478 -0.3347
22980SOL    HW170381   2.438   0.835   0.233 -2.1330  0.7736  0.2756
22980SOL    HW270382   2.510   0.968   0.228  0.2568 -0.5059 -0.8746
22981SOL     OW70383   5.103   0.939   9.608  0.2914 -0.0217 -0.9221
22981SOL    HW170384   5.190   0.925   9.646  0.3686  0.7117 -0.8142
22981SOL    HW270385   5.043   0.933   9.683 -0.1628 -3.7956 -1.3934
22982SOL     OW70386   2.305   3.653  10.453 -0.2576 -0.2164  0.5758
22982SOL    HW170387   2.383   3.642  10.507  0.4574  1.2105 -0.1134
22982SOL    HW270388   2.288   3.565  10.417  0.0797 -0.8726  1.9443
22983SOL     OW70389   1.169   4.947   8.355  0.0748 -0.3054 -0.0014
22983SOL    HW170390   1.192   4.936   8.263  2.0472  0.0225  0.4015
22983SOL    HW270391   1.227   5.017   8.386  0.1265 -1.0616  1.7134
22984SOL     OW70392   1.888   3.680   2.738  0.4719 -0.1233 -0.0626
22984SOL    HW170393   1.958   3.743   2.724  2.9646 -2.5548  0.5087
22984SOL    HW270394   1.836   3.682   2.657  0.6752  2.2743 -0.1953
22985SOL     OW70395   7.958   1.253   7.740  0.1774  0.0401 -0.2806
22985SOL    HW170396   8.048   1.271   7.768  1.2520 -1.1643 -2.6628
22985SOL    HW270397   7.957   1.159   7.721 -1.6566 -0.0031 -0.1520
22986SOL     OW70398   4.492   1.636   8.750  0.0456 -0.3341 -0.0750
22986SOL    HW170399   4.510   1.544   8.769  1.5707 -0.4975 -2.0410
22986SOL    HW270400   4.477   1.639   8.655 -2.5043  1.1031  0.2552
22987SOL     OW70401   4.833   3.549  10.234  0.7019 -0.4741 -0.4053
22987SOL    HW170402   4.882   3.467  10.237  1.2966 -0.1012  0.2785
22987SOL    HW270403   4.770   3.537  10.163  0.4839 -1.6883 -0.0225
22988SOL     OW70404   2.137   6.290   2.444  0.4781 -0.0888 -0.1929
22988SOL    HW170405   2.208   6.344   2.411 -0.6549  0.7411 -1.3873
22988SOL    HW270406   2.111   6.236   2.370 -1.5913  1.2336 -0.5227
22989SOL     OW70407   3.046   7.459   5.485  0.5112 -0.1501 -0.2816
22989SOL    HW170408   3.006   7.516   5.419  0.5988 -2.1090 -2.1296
22989SOL    HW270409   3.078   7.519   5.552 -1.7057  1.7857 -0.8259
22990SOL     OW70410   5.054   1.446   4.327  0.4396 -0.3799  0.1445
22990SOL    HW170411   5.124   1.493   4.372 -0.0547 -0.3823  0.9518
22990SOL    HW270412   5.098   1.387   4.266  1.0932  0.5470 -0.3000
22991SOL     OW70413   4.223   4.779   6.454 -0.1389 -0.2005  0.2302
22991SOL    HW170414   4.232   4.802   6.547 -1.5186  1.1798  0.0512
22991SOL    HW270415   4.149   4.830   6.423  0.2741 -0.6570 -1.6505
22992SOL     OW70416   0.184   3.069   5.415  0.7252 -0.1521  0.2381
22992SOL    HW170417   0.227   3.051   5.332  0.8929  0.2473  0.2366
22992SOL    HW270418   0.232   3.144   5.451 -1.8543  2.3914 -1.2113
22993SOL     OW70419   5.269   1.820   3.239  0.4318  0.3821 -0.0254
22993SOL    HW170420   5.301   1.740   3.282  1.4383  0.6428 -0.2683
22993SOL    HW270421   5.187   1.793   3.197  0.0804 -0.1893  0.9962
22994SOL     OW70422   2.647   6.045   3.258 -0.1957  0.0661  0.3576
22994SOL    HW170423   2.598   6.012   3.333 -0.0371  0.1085  0.4803
22994SOL    HW270424   2.669   6.136   3.281  0.3333 -0.0917  0.5015
22995SOL     OW70425   3.725   7.429  10.759  0.4314  0.0797  0.0037
22995SOL    HW170426   3.742   7.520  10.784  1.6045 -0.5054  1.5038
22995SOL    HW270427   3.682   7.391  10.836  0.1170 -0.6834 -0.5435
22996SOL     OW70428   7.012   5.572  10.270 -0.8501  0.6743  0.0962
22996SOL    HW170429   6.992   5.664  10.284 -1.1013  0.4584  1.2063
22996SOL    HW270430   7.007   5.532  10.357  4.9968  0.6595  0.8215
22997SOL     OW70431   5.602   1.788   5.514  0.0845 -0.2547 -0.1996
22997SOL    HW170432   5.535   1.733   5.555  0.5457  0.4500  1.6165
22997SOL    HW270433   5.580   1.877   5.541 -0.5136  0.5065 -2.8917
22998SOL     OW70434   7.585   3.658   6.499 -0.1348  0.4633  0.2439
22998SOL    HW170435   7.511   3.712   6.470 -0.4724  0.0336  0.2985
22998SOL    HW270436   7.633   3.714   6.560 -0.4652  0.7138  0.2763
22999SOL     OW70437   1.023   2.106   2.245  0.3059 -0.5329  0.3125
22999SOL    HW170438   0.969   2.057   2.307  0.5524 -1.2212 -0.0065
22999SOL    HW270439   1.044   2.042   2.176  3.2252 -0.8901  1.4326
23000SOL     OW70440   0.397   3.310   4.162  0.2285 -0.0866  0.3145
23000SOL    HW170441   0.323   3.269   4.208 -1.4455  0.5267 -1.6546
23000SOL    HW270442   0.363   3.328   4.074  1.9491  2.4992  0.0781
23001SOL     OW70443   2.433   3.246   6.214  0.2251  0.9175  0.3800
23001SOL    HW170444   2.402   3.335   6.199 -1.6719  0.9349  3.5138
23001SOL    HW270445   2.495   3.254   6.286 -0.3859 -0.3145  1.0831
23002SOL     OW70446   0.289   4.183   2.449  0.3546  0.3875  0.5592
23002SOL    HW170447   0.241   4.266   2.448 -0.7666 -0.2332 -1.2615
23002SOL    HW270448   0.247   4.132   2.518 -2.0894 -0.3398 -1.3227
23003SOL     OW70449   4.143   7.708   2.426 -0.1534 -0.0694 -0.8810
23003SOL    HW170450   4.154   7.686   2.334 -0.4109 -0.5450 -0.7994
23003SOL    HW270451   4.190   7.791   2.437 -0.4319  0.1815 -1.5228
23004SOL     OW70452   6.871   4.512   6.600 -0.0281  0.7419 -0.1024
23004SOL    HW170453   6.960   4.475   6.600 -0.0555  0.6635 -0.6487
23004SOL    HW270454   6.860   4.548   6.688  1.0973  2.0738 -0.4625
23005SOL     OW70455   2.757   1.296   5.204 -0.8925  0.0155  0.0336
23005SOL    HW170456   2.685   1.267   5.148 -1.3073  2.0671 -0.5660
23005SOL    HW270457   2.716   1.312   5.289 -0.8287 -0.2900  0.1242
23006SOL     OW70458   7.250   3.198  12.178  0.2321  0.3475  0.2259
23006SOL    HW170459   7.224   3.149  12.256  0.5454 -0.8948 -0.4334
23006SOL    HW270460   7.271   3.286  12.211  0.8706 -0.2985  1.6273
23007SOL     OW70461   2.579   5.314   4.253 -0.9100  0.7366 -0.6610
23007SOL    HW170462   2.666   5.308   4.211 -0.8374  2.9787 -0.9767
23007SOL    HW270463   2.597   5.348   4.340 -1.2265 -2.2560  0.6724
23008SOL     OW70464   1.940   1.845   1.867 -0.0682  0.1131  0.4070
23008SOL    HW170465   1.958   1.811   1.779  2.0382 -0.9868  1.2039
23008SOL    HW270466   1.867   1.905   1.854  0.5335  0.4240 -2.2029
23009SOL     OW70467   4.877   1.713  12.449  0.5325  0.2476 -0.3499
23009SOL    HW170468   4.786   1.684  12.452  0.3853  0.6861 -0.4085
23009SOL    HW270469   4.929   1.633  12.445  0.2128 -0.0431  1.0586
23010SOL     OW70470   4.186   7.841   9.229 -0.2605 -0.0899 -0.2881
23010SOL    HW170471   4.279   7.819   9.225 -0.2716 -0.0127 -0.9785
23010SOL    HW270472   4.169   7.852   9.323  0.2178 -0.9828 -0.0764
23011SOL     OW70473   2.311   1.221   7.308 -0.3832 -0.5150 -0.5715
23011SOL    HW170474   2.367   1.298   7.310 -1.0599  0.0105 -1.3381
23011SOL    HW270475   2.283   1.209   7.399  0.8244 -0.6985 -0.2012
23012SOL     OW70476   1.643   7.718   4.589  0.0094 -0.3559  0.5861
23012SOL    HW170477   1.596   7.651   4.540  0.1553  0.0098 -0.0667
23012SOL    HW270478   1.606   7.713   4.677  0.1261 -1.3921  0.5940
23013SOL     OW70479   0.080   6.629   3.241  0.6159 -0.1030 -0.0366
23013SOL    HW170480   0.015   6.559   3.250  0.6481  0.0041  1.1786
23013SOL    HW270481   0.035   6.708   3.268  0.8015  0.2357 -0.6978
23014SOL     OW70482   0.998   0.429   7.723 -0.5527 -0.1884 -0.6502
23014SOL    HW170483   1.034   0.517   7.715  1.9017 -1.1016 -0.5237
23014SOL    HW270484   1.026   0.384   7.643  0.5863 -1.5778  0.4708
23015SOL     OW70485   1.286   0.041   9.335 -0.9131 -0.4591  0.1225
23015SOL    HW170486   1.246  -0.043   9.315  0.1038 -1.3464  1.6221
23015SOL    HW270487   1.349   0.022   9.404  0.3104  1.3031 -0.4254
23016SOL     OW70488   5.226   6.447   6.407  0.4475 -0.4409  0.3392
23016SOL    HW170489   5.207   6.391   6.331  2.0757 -4.4319  2.5341
23016SOL    HW270490   5.166   6.415   6.474 -0.5252  2.5663  1.0581
23017SOL     OW70491   6.091   5.318   3.125  0.4180  0.5033 -0.3124
23017SOL    HW170492   6.175   5.359   3.106  1.2262 -0.5769  0.7718
23017SOL    HW270493   6.053   5.300   3.039  1.4099  0.7752 -0.8251
23018SOL     OW70494   6.323   4.514   9.154  0.0493 -0.0525 -0.4090
23018SOL    HW170495   6.407   4.530   9.110 -1.0357  2.3972 -1.7667
23018SOL    HW270496   6.295   4.428   9.122  1.6347 -0.5610 -0.5390
23019SOL     OW70497   6.094   1.370   7.641  0.7535 -0.2031 -0.1421
23019SOL    HW170498   6.161   1.387   7.575  0.7996 -2.4259 -0.7498
23019SOL    HW270499   6.092   1.449   7.694  2.0618  0.9027 -1.6495
23020SOL     OW70500   3.724   1.801   5.688  0.0664 -0.0136 -0.0334
23020SOL    HW170501   3.634   1.832   5.699  0.2639  0.2133  1.0811
23020SOL    HW270502   3.760   1.800   5.777  0.8134 -1.1936 -0.3249
23021SOL     OW70503   3.615   2.920  11.541  0.1237  0.4985 -0.4784
23021SOL    HW170504   3.689   2.932  11.482 -0.1931 -1.3488 -1.2886
23021SOL    HW270505   3.653   2.879  11.619  0.0007 -0.1443 -0.7589
23022SOL     OW70506   1.764   0.038   2.805 -0.7945 -0.3804  0.1857
23022SOL    HW170507   1.829  -0.014   2.757 -0.1097  0.2145  0.4373
23022SOL    HW270508   1.754  -0.007   2.889 -0.6060 -0.4075  0.1945
23023SOL     OW70509   5.527   7.603  10.703  0.1642  0.8980 -0.0571
23023SOL    HW170510   5.490   7.519  10.731  1.4281  0.7246  1.1918
23023SOL    HW270511   5.597   7.579  10.643  0.8084  1.0280  0.6335
23024SOL     OW70512   5.274   6.598   4.584  0.5520 -0.0405 -0.3771
23024SOL    HW170513   5.256   6.645   4.665 -2.0031  1.6906 -1.8138
23024SOL    HW270514   5.206   6.530   4.581  1.1116 -0.5916 -0.7131
23025SOL     OW70515   0.951   3.432   9.635 -0.3182  0.1186 -0.5953
23025SOL    HW170516   0.958   3.339   9.658 -0.3970 -0.1469 -1.6152
23025SOL    HW270517   0.903   3.433   9.553  1.1705  0.9370 -1.5082
23026SOL     OW70518   4.148   2.801  10.191 -0.1837 -0.2382  0.1532
23026SOL    HW170519   4.241   2.791  10.171 -0.4525 -1.3338 -0.7133
23026SOL    HW270520   4.103   2.766  10.113 -1.3126 -1.0768  1.1352
23027SOL     OW70521   3.130   6.349   1.200  0.3400 -0.3810  0.1035
23027SOL    HW170522   3.126   6.377   1.291  1.4951  0.9387 -0.2139
23027SOL    HW270523   3.197   6.405   1.161  0.0195 -1.0689 -1.5099
23028SOL     OW70524   6.548   0.355   9.432 -0.3747  0.3006 -0.0309
23028SOL    HW170525   6.590   0.294   9.492 -0.6129 -1.1333 -1.2452
23028SOL    HW270526   6.613   0.425   9.420  0.4240 -0.3329  0.4469
23029SOL     OW70527   0.746   4.206   2.071  0.0827 -0.4044  0.0570
23029SOL    HW170528   0.745   4.206   2.167  2.2583 -0.1924  0.1226
23029SOL    HW270529   0.803   4.134   2.047  0.4910  0.2555 -1.0406
23030SOL     OW70530   6.207   5.969   2.826  0.2125 -0.3009 -0.2541
23030SOL    HW170531   6.170   5.906   2.765 -1.1770 -0.6239  0.8651
23030SOL    HW270532   6.152   6.047   2.817  1.6453  0.6488 -1.3133
23031SOL     OW70533   3.963   3.401   8.196 -0.3561  0.1327 -0.2460
23031SOL    HW170534   4.045   3.450   8.202  0.9611 -2.0364  0.5818
23031SOL    HW270535   3.985   3.314   8.228 -3.5757  0.1254  2.5639
23032SOL     OW70536   5.518   3.151   0.509 -0.3152 -0.1476 -0.5086
23032SOL    HW170537   5.523   3.139   0.414  0.6196  2.0640 -0.7854
23032SOL    HW270538   5.425   3.166   0.527 -0.4721 -0.4202 -1.0903
23033SOL     OW70539   1.191   4.612  12.379  0.5015  0.4651  0.3816
23033SOL    HW170540   1.285   4.623  12.359 -0.0962 -0.5429 -4.1827
23033SOL    HW270541   1.184   4.522  12.411  1.0839  0.4971  0.6204
23034SOL     OW70542   0.108   2.368   7.209  0.0436  0.2716  0.1167
23034SOL    HW170543   0.088   2.446   7.157  1.7253  1.2362  0.8306
23034SOL    HW270544   0.032   2.358   7.267 -0.8630  0.4673 -0.9992
23035SOL     OW70545   7.769   0.311  12.205 -0.2464 -0.5122  0.0077
23035SOL    HW170546   7.851   0.265  12.188  0.7362  1.3125 -0.4719
23035SOL    HW270547   7.776   0.340  12.296  0.7312  1.5660 -0.6490
23036SOL     OW70548   6.310   5.389   6.806  0.0164  0.1733  1.1191
23036SOL    HW170549   6.311   5.311   6.751  3.3108 -0.2648  1.5807
23036SOL    HW270550   6.317   5.462   6.746 -0.0300 -0.0628  0.8257
23037SOL     OW70551   5.419   5.421   7.809 -0.2291  0.4454  0.3150
23037SOL    HW170552   5.382   5.378   7.732  0.3874 -0.6838  0.6130
23037SOL    HW270553   5.407   5.357   7.880 -1.0826  1.6013  1.2425
23038SOL     OW70554   3.465   6.430  10.108  0.6809  0.7874  0.7530
23038SOL    HW170555   3.529   6.474  10.164  1.3804  1.4718 -0.5511
23038SOL    HW270556   3.445   6.494  10.040 -0.7944  0.2834  0.6740
23039SOL     OW70557   0.970   6.846   9.660  0.0203  0.1514  0.1474
23039SOL    HW170558   1.023   6.767   9.646 -0.2325  0.0144 -0.0360
23039SOL    HW270559   0.956   6.850   9.754 -0.1877 -0.1661  0.1297
23040SOL     OW70560   0.350   4.542  11.242  0.0391  0.3090  0.4132
23040SOL    HW170561   0.314   4.599  11.174 -1.1073 -0.5669  0.2380
23040SOL    HW270562   0.274   4.493  11.275  0.9094 -0.8531  0.7872
23041SOL     OW70563   4.250   5.970   1.470 -0.1847  0.8734 -0.8844
23041SOL    HW170564   4.262   5.878   1.492 -2.4654  0.1130 -2.4543
23041SOL    HW270565   4.338   6.002   1.451  0.7188 -0.7901  0.2699
23042SOL     OW70566   2.176   4.254   7.092 -0.2996  0.2256  0.5668
23042SOL    HW170567   2.167   4.173   7.041 -0.1122  1.3313 -1.2917
23042SOL    HW270568   2.173   4.224   7.183 -0.4038 -1.8547 -0.0511
23043SOL     OW70569   2.702   6.464   6.134 -0.2236  0.6795 -0.3778
23043SOL    HW170570   2.791   6.499   6.126 -0.3634  0.6862 -2.2517
23043SOL    HW270571   2.645   6.540   6.124 -0.4715  0.3528 -1.5125
23044SOL     OW70572   1.510   3.226   5.099 -0.4504  0.3549  0.0750
23044SOL    HW170573   1.552   3.140   5.087 -1.0745  0.1051 -0.3761
23044SOL    HW270574   1.462   3.240   5.018 -1.3638  0.5679  0.6431
23045SOL     OW70575   0.402   4.195   8.193 -0.7560 -0.2305 -0.8247
23045SOL    HW170576   0.358   4.266   8.240 -1.0433  1.0159 -2.8599
23045SOL    HW270577   0.494   4.222   8.188 -0.2754 -1.4184  0.8623
23046SOL     OW70578   2.744   1.227   2.258  0.0346 -0.9136  0.0583
23046SOL    HW170579   2.681   1.277   2.205 -0.0367 -0.6761  0.3566
23046SOL    HW270580   2.691   1.158   2.298 -0.2455 -0.1629  1.0392
23047SOL     OW70581   4.727   7.393   4.268  0.0324 -0.2116  0.2756
23047SOL    HW170582   4.807   7.347   4.293 -0.6207 -1.3379  0.3271
23047SOL    HW270583   4.740   7.482   4.302  0.7411 -0.7034  1.3819
23048SOL     OW70584   7.765   5.049   5.708 -0.5398 -0.7723  0.1260
23048SOL    HW170585   7.857   5.059   5.732 -0.8507 -0.2527  1.2232
23048SOL    HW270586   7.739   5.136   5.678 -0.7995 -0.7717  0.3452
23049SOL     OW70587   4.315   2.994   3.288 -0.6584  0.3167 -0.6511
23049SOL    HW170588   4.259   3.028   3.358 -0.5997  1.3969 -1.1085
23049SOL    HW270589   4.258   2.991   3.211 -0.0719  1.5672 -1.1560
23050SOL     OW70590   7.836   1.670   5.249  0.3853  0.2183  0.2448
23050SOL    HW170591   7.806   1.743   5.194  2.0955  0.2885 -0.6771
23050SOL    HW270592   7.828   1.704   5.338  1.5024  1.7335 -0.1761
23051SOL     OW70593   7.549   7.925   1.393 -0.0844  0.0066 -0.6303
23051SOL    HW170594   7.602   7.905   1.316 -0.1576  0.2681 -0.7489
23051SOL    HW270595   7.574   8.014   1.417 -1.7201  0.8024 -1.7283
23052SOL     OW70596   7.696   3.703   3.863  0.1982  0.2729  0.0114
23052SOL    HW170597   7.731   3.733   3.947  0.5164 -0.5331  0.1742
23052SOL    HW270598   7.773   3.691   3.807  0.0423  0.1769 -0.1864
23053SOL     OW70599   3.270   6.285   1.789 -0.3958  0.0178  0.0156
23053SOL    HW170600   3.247   6.196   1.761  0.1663 -0.2812  0.4626
23053SOL    HW270601   3.351   6.305   1.742 -2.2688  1.6756 -2.7553
23054SOL     OW70602   4.103   3.979   0.293  0.4218 -0.0810  0.5146
23054SOL    HW170603   4.030   3.922   0.319  0.8926 -1.2433 -0.6186
23054SOL    HW270604   4.180   3.938   0.332  0.5228  1.0280  1.5317
23055SOL     OW70605   3.156   1.908   6.486  0.6814  0.1908 -0.1714
23055SOL    HW170606   3.183   1.982   6.540  0.5371  0.9670 -1.1345
23055SOL    HW270607   3.082   1.869   6.532  0.9133  0.4935  0.4630
23056SOL     OW70608   2.776   2.051   6.552 -0.1878  0.3591  0.0421
23056SOL    HW170609   2.791   1.982   6.617 -1.5897 -0.4794 -0.4832
23056SOL    HW270610   2.837   2.121   6.577  0.3720 -0.5476  1.3422
23057SOL     OW70611   1.191   4.466   5.970  0.1165  0.0493  0.2481
23057SOL    HW170612   1.140   4.392   5.937  1.4760 -1.2801  1.0011
23057SOL    HW270613   1.136   4.543   5.953 -1.2387 -1.0962 -0.7607
23058SOL     OW70614   4.480   1.584   9.288  0.2968  0.1401 -0.3037
23058SOL    HW170615   4.485   1.652   9.221 -0.2157  0.4088 -0.0798
23058SOL    HW270616   4.537   1.616   9.358  0.1426  0.2893 -0.2445
23059SOL     OW70617   5.603   4.279   8.271  0.4424 -0.5057  0.2083
23059SOL    HW170618   5.614   4.354   8.329 -1.0195  1.1620 -1.5454
23059SOL    HW270619   5.683   4.228   8.283  1.7360  1.5921  1.0946
23060SOL     OW70620   1.399   2.254  12.082  0.4492  0.1809 -0.1488
23060SOL    HW170621   1.465   2.209  12.030  1.9981  2.1041  0.0438
23060SOL    HW270622   1.377   2.332  12.031  0.7406  1.2208  1.2715
23061SOL     OW70623   5.585   0.114   5.128  0.2969  0.0779 -0.5203
23061SOL    HW170624   5.624   0.051   5.188 -1.9630 -0.2069  0.7723
23061SOL    HW270625   5.630   0.197   5.146  1.2660 -0.5246 -0.1401
23062SOL     OW70626   2.340   7.191  10.628 -0.4780  0.9772  0.3335
23062SOL    HW170627   2.351   7.162  10.719 -0.0775  1.4495  0.4344
23062SOL    HW270628   2.253   7.232  10.627 -0.7886  0.3469  0.3316
23063SOL     OW70629   7.586   7.330   7.780 -0.2169  0.1853 -0.3460
23063SOL    HW170630   7.624   7.357   7.863  0.5046  0.2773 -0.6963
23063SOL    HW270631   7.657   7.340   7.717 -0.6095 -0.3518 -0.8871
23064SOL     OW70632   5.324   3.058   8.204  0.7548 -0.2276  0.9037
23064SOL    HW170633   5.262   3.119   8.243  0.5674 -0.4770  0.9984
23064SOL    HW270634   5.359   3.009   8.279 -1.7653 -2.7751  0.5868
23065SOL     OW70635   2.268   2.229   2.383 -0.1544  0.5956  0.5248
23065SOL    HW170636   2.238   2.185   2.303  0.1685  0.5744  0.4139
23065SOL    HW270637   2.359   2.201   2.392  0.7578  2.8721 -0.6913
23066SOL     OW70638   2.177   2.242   3.756 -0.3183 -0.4238  0.4153
23066SOL    HW170639   2.259   2.192   3.750 -0.3419 -0.4489  0.3010
23066SOL    HW270640   2.171   2.289   3.673  1.1221  1.9894  1.5857
23067SOL     OW70641   5.375   6.719   8.746  0.2560 -0.0861  0.2491
23067SOL    HW170642   5.441   6.722   8.677  1.0167  1.0586  0.9964
23067SOL    HW270643   5.424   6.733   8.827 -0.8585  0.4523  0.8488
23068SOL     OW70644   7.470   7.572   5.534  0.3818 -0.2109 -0.2423
23068SOL    HW170645   7.447   7.562   5.442  1.7327 -1.2884 -0.4961
23068SOL    HW270646   7.426   7.499   5.578 -0.1983  0.2575 -0.0316
23069SOL     OW70647   7.898   1.027   5.220  0.3632  0.2975 -0.0965
23069SOL    HW170648   7.886   0.965   5.292  2.0508 -0.8014 -0.6974
23069SOL    HW270649   7.819   1.018   5.166  1.3676 -2.8237 -1.2151
23070SOL     OW70650   1.089   5.732  10.556  0.5691 -0.1920  0.1598
23070SOL    HW170651   1.160   5.703  10.613  1.1624  0.4290 -0.2449
23070SOL    HW270652   1.028   5.777  10.614  1.8252  1.6496  0.1692
23071SOL     OW70653   1.618   2.952   6.451  0.5322 -0.4424  0.4107
23071SOL    HW170654   1.637   3.043   6.474  2.1026 -0.4279 -0.7620
23071SOL    HW270655   1.631   2.948   6.357 -1.3853 -1.4853  0.1334
23072SOL     OW70656   2.183   0.457   8.898 -0.2374  0.1005  0.5002
23072SOL    HW170657   2.236   0.398   8.951  0.3572 -0.8089 -1.0268
23072SOL    HW270658   2.213   0.441   8.808 -1.9493  0.7855 -0.2260
23073SOL     OW70659   1.597   7.877   6.714  0.2766 -0.7205 -0.1060
23073SOL    HW170660   1.655   7.950   6.691  0.2622 -0.6153  0.1846
23073SOL    HW270661   1.510   7.905   6.684  0.3955 -0.9399 -0.6764
23074SOL     OW70662   2.668   2.448   8.242  0.4825  0.5182 -0.4722
23074SOL    HW170663   2.763   2.448   8.237  0.5304  2.7291 -0.2252
23074SOL    HW270664   2.639   2.435   8.152  1.0165  0.3995 -0.6260
23075SOL     OW70665   5.002   5.531   3.527  0.4238  0.6274  0.2134
23075SOL    HW170666   4.930   5.592   3.544  0.9662  0.9785  1.3130
23075SOL    HW270667   4.981   5.453   3.578  0.3227  0.3291 -0.2705
23076SOL     OW70668   2.301   6.485   8.726 -0.3085 -0.1521 -0.0856
23076SOL    HW170669   2.216   6.499   8.769 -0.8192  0.4399 -1.2239
23076SOL    HW270670   2.326   6.572   8.695  0.6573 -0.3512  0.1195
23077SOL     OW70671   1.698   5.319   0.179 -0.1737 -0.1929  0.3526
23077SOL    HW170672   1.653   5.270   0.248 -1.0070 -0.1003 -0.1143
23077SOL    HW270673   1.647   5.399   0.169 -0.4087 -0.4696 -0.7796
23078SOL     OW70674   4.812   0.310  10.358  0.2428  0.1681  0.1563
23078SOL    HW170675   4.853   0.374  10.415 -1.3411  1.5554 -0.1918
23078SOL    HW270676   4.745   0.268  10.412  1.0154 -0.9682  0.2724
23079SOL     OW70677   4.355   0.328   7.720 -0.0857  0.0171  0.2579
23079SOL    HW170678   4.326   0.416   7.696  1.0213  0.2419 -0.3571
23079SOL    HW270679   4.367   0.283   7.636  1.1117 -0.1093  0.4697
23080SOL     OW70680   0.843   7.099   5.121 -0.2785  0.1283 -0.1505
23080SOL    HW170681   0.875   7.020   5.076 -0.8949 -0.1824 -0.0608
23080SOL    HW270682   0.818   7.158   5.050 -0.7058 -0.1335 -0.2224
23081SOL     OW70683   6.527   3.951   3.865 -0.4267  0.4808  0.1246
23081SOL    HW170684   6.604   3.914   3.823 -1.1516  0.8674 -1.6063
23081SOL    HW270685   6.557   4.034   3.901  0.3919 -0.2173  1.1102
23082SOL     OW70686   6.125   7.089  10.452  0.7720  0.1137 -0.2390
23082SOL    HW170687   6.136   7.132  10.367 -0.0674 -0.7647 -0.8071
23082SOL    HW270688   6.214   7.076  10.484  1.0840  0.7712 -0.8105
23083SOL     OW70689   1.259   6.607   1.639 -0.3340  0.0536 -0.2915
23083SOL    HW170690   1.207   6.528   1.654 -1.7148  0.4539 -2.4953
23083SOL    HW270691   1.335   6.576   1.589  0.1300 -0.1219  0.5011
23084SOL     OW70692   1.152   2.465   1.711  0.3528 -0.1811 -0.9318
23084SOL    HW170693   1.151   2.418   1.794 -1.1862 -0.0514 -0.8434
23084SOL    HW270694   1.170   2.398   1.645  1.2723 -0.3346 -0.5327
23085SOL     OW70695   4.561   0.528   3.871  0.0137  0.7779  0.3497
23085SOL    HW170696   4.583   0.459   3.933 -0.5082  1.3893  1.2273
23085SOL    HW270697   4.466   0.523   3.862  0.2310 -0.7339 -2.1204
23086SOL     OW70698   2.358   1.351   1.629 -0.0731 -0.6622 -0.1557
23086SOL    HW170699   2.354   1.421   1.565 -2.2546 -0.2074  0.3914
23086SOL    HW270700   2.395   1.392   1.707  1.4585 -0.9171 -0.7161
23087SOL     OW70701   1.708   3.926  12.271 -0.2977 -0.2729 -0.2666
23087SOL    HW170702   1.699   3.835  12.298 -1.9775  0.4018  1.7840
23087SOL    HW270703   1.649   3.974  12.330  0.6274  2.1543 -1.1872
23088SOL     OW70704   6.285   4.948  11.327 -0.2524 -0.0230 -0.5217
23088SOL    HW170705   6.209   4.894  11.304 -0.7551  0.3926  0.1364
23088SOL    HW270706   6.249   5.019  11.380  0.6068  0.1377 -0.1413
23089SOL     OW70707   5.948   4.284   5.001  0.0926  0.3673 -0.1158
23089SOL    HW170708   5.982   4.373   5.008 -0.0707  0.4525 -0.3890
23089SOL    HW270709   5.856   4.291   5.027  0.1323  0.2402  0.0644
23090SOL     OW70710   5.532   2.943   0.700 -0.6660  0.1933  0.2225
23090SOL    HW170711   5.627   2.948   0.710 -0.7678  1.5900  0.7086
23090SOL    HW270712   5.516   2.966   0.608 -0.5391  0.1402  0.1872
23091SOL     OW70713   5.380   0.612  10.948  0.0479  0.8049  0.3488
23091SOL    HW170714   5.321   0.600  11.022 -1.4118 -0.9485 -0.9854
23091SOL    HW270715   5.344   0.687  10.901 -0.7424  0.2037 -0.0473
23092SOL     OW70716   3.940   3.136   3.219  0.1812 -0.2210 -0.3170
23092SOL    HW170717   3.961   3.228   3.204 -0.0380 -0.0376  0.4417
23092SOL    HW270718   3.868   3.118   3.158  0.7562 -0.1225 -1.0400
23093SOL     OW70719   3.418   0.563  11.333  0.0573 -0.2247  0.5587
23093SOL    HW170720   3.487   0.524  11.280  0.2720  0.9076 -0.0312
23093SOL    HW270721   3.464   0.605  11.406 -0.0438  0.1020  0.4377
23094SOL     OW70722   0.728   3.053   0.851  0.6268 -0.1398 -0.0768
23094SOL    HW170723   0.664   3.012   0.911  0.0375 -1.3313 -1.4655
23094SOL    HW270724   0.706   3.146   0.853 -0.6587 -0.4242  0.0810
23095SOL     OW70725   4.589   2.812   3.227 -0.1120 -0.2411 -0.2635
23095SOL    HW170726   4.656   2.759   3.185  2.0503  1.2961  0.9775
23095SOL    HW270727   4.568   2.880   3.163  0.3826 -0.0576 -0.2307
23096SOL     OW70728   2.457   6.724   6.752 -0.8703 -0.6044 -0.5614
23096SOL    HW170729   2.381   6.697   6.700 -1.5953 -1.2168  0.7658
23096SOL    HW270730   2.442   6.816   6.771 -1.0660 -0.6175 -0.6478
23097SOL     OW70731   5.741   4.931   0.243 -0.4625 -0.0220  0.3156
23097SOL    HW170732   5.821   4.914   0.292 -0.5740 -1.0211  0.1623
23097SOL    HW270733   5.699   4.845   0.233 -0.8916  0.2913 -0.7360
23098SOL     OW70734   4.833   2.321   8.093 -0.6020 -0.7005 -0.0963
23098SOL    HW170735   4.853   2.266   8.169  1.3683  0.0934  0.0246
23098SOL    HW270736   4.829   2.259   8.019  3.7538 -1.0283 -0.3616
23099SOL     OW70737   6.755   4.892   1.103 -0.3148 -0.0845 -0.2192
23099SOL    HW170738   6.761   4.984   1.078 -0.2749 -0.2673 -0.9205
23099SOL    HW270739   6.668   4.882   1.141 -1.3365 -0.2683 -2.4317
23100SOL     OW70740   6.945   5.135   7.053  0.7929  0.3111 -0.0339
23100SOL    HW170741   6.907   5.178   7.130 -1.3659 -1.7853  0.2012
23100SOL    HW270742   6.874   5.134   6.989  1.2386 -1.4947 -0.5482
23101SOL     OW70743   2.729   4.948   5.139  0.4935  0.0179 -0.2334
23101SOL    HW170744   2.647   4.971   5.095  2.0301 -1.7708 -4.6648
23101SOL    HW270745   2.710   4.866   5.184 -0.0933 -0.7657 -1.8110
23102SOL     OW70746   0.818   3.051   5.409 -0.1934  0.1745 -0.4446
23102SOL    HW170747   0.891   3.049   5.347  0.9994  3.5503  0.6799
23102SOL    HW270748   0.855   3.023   5.492 -0.6953  0.0261 -0.2626
23103SOL     OW70749   6.992   3.773   6.042  0.4900  0.4532  0.0981
23103SOL    HW170750   6.977   3.743   6.132  0.5601 -0.8819 -0.3038
23103SOL    HW270751   6.987   3.868   6.047  0.7360  0.4158  1.5581
23104SOL     OW70752   0.026   0.070   2.026  0.7117 -0.4153  0.4649
23104SOL    HW170753   0.073   0.071   2.109 -1.1537 -0.8504  1.5802
23104SOL    HW270754  -0.005   0.160   2.014  1.6334 -0.1701 -0.1783
23105SOL     OW70755   4.622   0.313   4.036 -0.2944  0.2164  0.1065
23105SOL    HW170756   4.662   0.246   3.982 -0.6442 -0.4485  0.6530
23105SOL    HW270757   4.693   0.345   4.091  0.0371  0.8224 -0.6638
23106SOL     OW70758   2.187   5.854   6.773 -0.4556  0.7400 -0.2131
23106SOL    HW170759   2.202   5.798   6.849 -1.7233 -1.0809 -1.2259
23106SOL    HW270760   2.147   5.796   6.708 -1.0498  2.6460 -1.6399
23107SOL     OW70761   0.735   5.645   9.937  0.4142 -0.0325  0.0717
23107SOL    HW170762   0.727   5.638  10.032  1.4513 -0.0111  0.1662
23107SOL    HW270763   0.681   5.721   9.914 -0.0636 -0.2067  0.6046
23108SOL     OW70764   4.835   6.026   7.279 -0.1739 -0.3534 -0.1396
23108SOL    HW170765   4.870   6.010   7.192  1.3290  1.5014  0.0508
23108SOL    HW270766   4.909   6.011   7.338 -0.6285  0.2773  0.6144
23109SOL     OW70767   0.424   4.067   6.195 -0.3521  0.3671 -0.4702
23109SOL    HW170768   0.438   4.118   6.115  2.2183 -1.2426 -1.1410
23109SOL    HW270769   0.424   3.976   6.167  1.6949 -0.3073  1.4216
23110SOL     OW70770   2.247   5.176   2.553 -0.4174  0.4359 -0.5042
23110SOL    HW170771   2.157   5.198   2.530  0.1394  2.1754 -1.1883
23110SOL    HW270772   2.278   5.251   2.605  0.6545 -0.0829 -0.3582
23111SOL     OW70773   0.813   3.885   9.151  0.0856  0.2010  0.3736
23111SOL    HW170774   0.733   3.875   9.203  0.9200  2.3206  2.2787
23111SOL    HW270775   0.784   3.926   9.070 -1.0775 -1.8465 -0.3248
23112SOL     OW70776   7.045   5.836  11.016  0.2129 -0.1909  0.2393
23112SOL    HW170777   6.992   5.876  10.947  0.8566 -0.5338 -0.4735
23112SOL    HW270778   7.015   5.877  11.097 -0.0902  0.7166 -0.3206
23113SOL     OW70779   7.975   6.764   2.750  0.0625 -0.1625 -0.1198
23113SOL    HW170780   7.996   6.674   2.772  3.4219  1.0423  2.3538
23113SOL    HW270781   7.907   6.789   2.812 -0.9458 -0.9313 -0.8725
23114SOL     OW70782   7.850   3.449   8.653  0.0344 -0.1280 -0.3850
23114SOL    HW170783   7.917   3.409   8.708 -0.7916 -1.3690 -0.2621
23114SOL    HW270784   7.833   3.385   8.585 -1.0450  0.1568 -0.4000
23115SOL     OW70785   7.547   3.433  10.651 -0.0241 -0.2694 -0.0917
23115SOL    HW170786   7.502   3.470  10.727  0.0387  0.1770 -0.2743
23115SOL    HW270787   7.477   3.411  10.590 -0.2288 -2.1117  0.7191
23116SOL     OW70788   5.299   1.886   5.155  0.4308 -0.1079  0.0468
23116SOL    HW170789   5.206   1.866   5.161  0.3459 -0.1749 -1.2889
23116SOL    HW270790   5.304   1.981   5.168  0.1619 -0.0861 -0.0102
23117SOL     OW70791   5.049   7.751   9.652 -0.9552 -0.0954 -0.2529
23117SOL    HW170792   5.140   7.761   9.680 -0.7506  1.0950 -1.2253
23117SOL    HW270793   5.055   7.722   9.561 -1.5821 -1.8034  0.2209
23118SOL     OW70794   5.780   5.203   1.289  0.5171  0.2269 -0.0823
23118SOL    HW170795   5.839   5.138   1.329  1.0543  0.1377 -1.0009
23118SOL    HW270796   5.756   5.165   1.204 -0.1874  0.6593 -0.0908
23119SOL     OW70797   0.005   7.342   8.490 -0.2878  0.1548  0.3755
23119SOL    HW170798   0.092   7.363   8.523  0.1126 -1.3369  0.3449
23119SOL    HW270799   0.014   7.254   8.453 -1.8962 -0.1693  0.6905
23120SOL     OW70800   7.476   0.572  10.317 -0.4871  1.1617  0.2729
23120SOL    HW170801   7.538   0.503  10.293 -1.6807  0.3533 -0.5624
23120SOL    HW270802   7.532   0.645  10.347  0.8595  0.4872 -0.5104
23121SOL     OW70803   3.413   0.580   3.520  0.6026  0.1402  0.2018
23121SOL    HW170804   3.399   0.674   3.507 -0.1171  0.0392  0.1919
23121SOL    HW270805   3.399   0.567   3.614  0.5924  0.0299  0.1851
23122SOL     OW70806   6.125   4.199   7.378 -0.1020  0.3166  0.4865
23122SOL    HW170807   6.216   4.220   7.399 -0.0134  0.5892 -0.1542
23122SOL    HW270808   6.083   4.184   7.463  0.6688 -0.3545  0.7571
23123SOL     OW70809   7.890   7.732  11.969  0.3575 -0.2122 -0.8146
23123SOL    HW170810   7.824   7.692  12.026 -0.7936 -1.1089 -2.6743
23123SOL    HW270811   7.974   7.697  12.001 -0.2357 -0.6452  0.3186
23124SOL     OW70812   5.500   5.918   2.839 -0.5565 -0.0681  0.4206
23124SOL    HW170813   5.406   5.935   2.836 -0.7515 -1.2410 -0.3040
23124SOL    HW270814   5.525   5.941   2.929 -0.9221  3.1629 -0.1836
23125SOL     OW70815   7.629   5.005   0.550  0.2692 -0.2838  0.2376
23125SOL    HW170816   7.648   4.929   0.495 -1.9708  0.4355 -1.7346
23125SOL    HW270817   7.590   4.969   0.629 -2.3134 -1.2582 -1.3561
23126SOL     OW70818   6.457   5.742   3.706 -0.0511 -0.1991  0.1706
23126SOL    HW170819   6.507   5.820   3.728  0.7434 -0.8471  0.7137
23126SOL    HW270820   6.411   5.765   3.625  1.1477  0.4116 -0.3662
23127SOL     OW70821   2.522   7.144   1.584  0.0586 -0.2350 -0.1653
23127SOL    HW170822   2.566   7.074   1.633 -0.1590  0.4029  0.9792
23127SOL    HW270823   2.494   7.103   1.502 -0.9090 -1.7462  0.8784
23128SOL     OW70824   1.455   2.598   5.339 -0.2731 -0.4127  0.2689
23128SOL    HW170825   1.438   2.522   5.394 -1.9833  0.7778  1.4905
23128SOL    HW270826   1.376   2.608   5.286 -1.2754  1.9948  2.0336
23129SOL     OW70827   7.203   7.069  10.076  0.6222 -0.3358  0.4250
23129SOL    HW170828   7.182   7.002  10.140 -0.3576 -0.4696 -0.0169
23129SOL    HW270829   7.207   7.022   9.993 -2.3385  0.4100 -0.2736
23130SOL     OW70830   2.661   6.434   4.095  0.2877  0.1476  0.4860
23130SOL    HW170831   2.610   6.357   4.122 -0.6134  0.1512 -1.0245
23130SOL    HW270832   2.741   6.398   4.058 -0.3204 -0.1342 -0.6135
23131SOL     OW70833   6.537   5.772   1.858 -0.2860 -0.1583 -0.7838
23131SOL    HW170834   6.602   5.826   1.904 -1.2757 -0.2328  0.7676
23131SOL    HW270835   6.466   5.833   1.837 -0.4411 -0.4128 -1.0052
23132SOL     OW70836   6.102   2.489   7.770  0.4301  0.1273 -0.0289
23132SOL    HW170837   6.007   2.496   7.778  0.4754  1.8935 -0.5327
23132SOL    HW270838   6.116   2.418   7.708 -0.6488  0.8045 -1.0946
23133SOL     OW70839   4.694   7.446   9.402  0.3745  0.6036  0.3470
23133SOL    HW170840   4.694   7.539   9.382 -0.6078  0.7920  1.1403
23133SOL    HW270841   4.605   7.428   9.434  0.4292 -0.6829 -0.1485
23134SOL     OW70842   4.261   7.346   8.237  0.0813 -0.3373  0.4958
23134SOL    HW170843   4.232   7.319   8.325 -1.3748  0.0896  0.1761
23134SOL    HW270844   4.305   7.430   8.251  2.1864 -1.4902  1.1321
23135SOL     OW70845   1.845   5.073   5.794  0.1314  0.0015 -0.3090
23135SOL    HW170846   1.794   4.992   5.794 -0.3472  0.2976 -1.2092
23135SOL    HW270847   1.787   5.138   5.834  0.8363 -0.2718  1.2424
23136SOL     OW70848   0.898   3.699   7.605  0.0811  0.6836 -0.2713
23136SOL    HW170849   0.960   3.727   7.673  0.7577  1.9548 -1.3673
23136SOL    HW270850   0.814   3.693   7.651  0.9453 -0.9709  1.2204
23137SOL     OW70851   6.510   4.369   6.483  0.3769 -0.1549  0.3228
23137SOL    HW170852   6.488   4.308   6.413 -0.0659  0.6817 -0.2836
23137SOL    HW270853   6.435   4.428   6.487 -0.6043 -1.4198  2.9366
23138SOL     OW70854   2.920   4.633   0.605  0.0201  0.1336 -0.5296
23138SOL    HW170855   2.986   4.565   0.598 -0.8005 -0.7379  0.0827
23138SOL    HW270856   2.838   4.589   0.586 -0.6791  0.6488  1.1106
23139SOL     OW70857   1.858   7.188   8.241  0.8419 -0.2919 -0.3608
23139SOL    HW170858   1.774   7.159   8.278  1.7743 -1.4834  0.9210
23139SOL    HW270859   1.834   7.243   8.166 -1.0693 -0.8093 -0.1670
23140SOL     OW70860   3.229   6.903   5.287  0.2762 -0.1510 -0.2753
23140SOL    HW170861   3.135   6.888   5.280  0.3228 -0.2689 -0.6888
23140SOL    HW270862   3.254   6.860   5.369 -0.2740  1.1727  0.6197
23141SOL     OW70863   4.241   7.058   9.927  0.2759 -0.2108 -0.2517
23141SOL    HW170864   4.325   7.078   9.969  0.0793 -2.4588  1.3893
23141SOL    HW270865   4.260   7.061   9.833  1.7690  0.9238  0.0524
23142SOL     OW70866   6.789   2.693   5.019  0.3024  0.0162 -0.0493
23142SOL    HW170867   6.775   2.718   4.927 -1.3704  1.4245  0.5205
23142SOL    HW270868   6.744   2.761   5.069  0.4295 -1.1896  1.8032
23143SOL     OW70869   1.976   5.720   8.210  0.2196  0.3016 -0.1842
23143SOL    HW170870   1.967   5.733   8.304 -0.0824  0.1450 -0.1918
23143SOL    HW270871   2.003   5.629   8.200  0.3770  0.3534 -0.2440
23144SOL     OW70872   2.109   0.709   5.162  0.4500 -0.1927 -0.1622
23144SOL    HW170873   2.189   0.719   5.110  0.1019  2.4632 -0.3275
23144SOL    HW270874   2.065   0.633   5.124  2.5564 -1.3185 -0.4820
23145SOL     OW70875   6.155   6.813   1.343 -0.5878  0.9324 -0.1573
23145SOL    HW170876   6.098   6.840   1.271  0.4251  1.4618 -0.8031
23145SOL    HW270877   6.150   6.886   1.405 -1.0920  0.6945  0.0818
23146SOL     OW70878   6.940   1.602   5.718 -0.2431 -0.0222 -0.5134
23146SOL    HW170879   6.900   1.689   5.722 -2.0390 -0.8456  1.6085
23146SOL    HW270880   7.020   1.609   5.769 -0.9199  0.1690  0.5490
23147SOL     OW70881   6.985   3.455   2.002  0.2550 -0.1850  0.7602
23147SOL    HW170882   7.030   3.536   2.026 -1.8033  1.9960 -1.9318
23147SOL    HW270883   6.899   3.462   2.045 -0.3515 -0.3213 -0.3913
23148SOL     OW70884   4.331   2.927   9.060 -0.3858 -0.0327  0.1752
23148SOL    HW170885   4.293   2.981   9.129 -0.9871 -1.9514  1.4385
23148SOL    HW270886   4.404   2.979   9.026 -1.0215  1.6037  1.1990
23149SOL     OW70887   5.730   5.502   4.089  0.1345  0.0323 -0.3872
23149SOL    HW170888   5.730   5.428   4.149  0.7687  0.1825 -0.1902
23149SOL    HW270889   5.639   5.532   4.087  0.2486  0.6003  1.2223
23150SOL     OW70890   6.815   0.072   1.204 -0.2188  0.5287 -0.0109
23150SOL    HW170891   6.871  -0.006   1.201  0.0266  0.6517  0.9068
23150SOL    HW270892   6.729   0.039   1.227 -0.0570  0.5393  0.6469
23151SOL     OW70893   6.874   0.846   5.207  0.3353 -0.5687 -0.8807
23151SOL    HW170894   6.780   0.839   5.188  0.1744  1.0858 -0.8298
23151SOL    HW270895   6.905   0.917   5.151  0.8580  1.0816  1.3689
23152SOL     OW70896   1.322   7.060   8.955  0.1025 -0.1534 -0.0714
23152SOL    HW170897   1.256   6.994   8.977 -0.5595  0.1775 -1.0060
23152SOL    HW270898   1.377   7.017   8.889  0.3355 -0.1414  0.1123
23153SOL     OW70899   4.463   5.588   7.116 -0.2880  0.2030  0.1018
23153SOL    HW170900   4.513   5.657   7.072 -0.8003 -0.4039 -1.5233
23153SOL    HW270901   4.427   5.630   7.194 -1.0579  1.9527 -1.1416
23154SOL     OW70902   4.611   5.165   7.954 -0.0361 -0.5362 -0.2052
23154SOL    HW170903   4.661   5.129   8.027 -2.1535 -0.4986  1.3977
23154SOL    HW270904   4.546   5.221   7.997 -0.1445  1.0215 -2.2940
23155SOL     OW70905   6.468   4.888   5.512  0.3564 -0.3475 -0.1693
23155SOL    HW170906   6.378   4.871   5.539  0.7974  0.0779  1.7376
23155SOL    HW270907   6.501   4.949   5.578  1.8041  0.1143 -1.2834
23156SOL     OW70908   6.927   4.187   6.940  0.1658  0.6097 -0.3074
23156SOL    HW170909   6.918   4.189   7.036  1.2317 -0.1064 -0.1702
23156SOL    HW270910   6.993   4.254   6.921 -0.5887  1.2814 -0.6355
23157SOL     OW70911   6.071   2.683   9.996 -0.2470 -0.1270  0.0971
23157SOL    HW170912   6.062   2.725   9.911  0.3104 -0.9859 -0.3897
23157SOL    HW270913   6.146   2.626   9.988  2.1278  2.3923  2.2680
23158SOL     OW70914   5.485   0.917  11.084 -0.0096 -0.0615  0.6331
23158SOL    HW170915   5.508   0.825  11.095 -1.6404 -0.4949  0.6079
23158SOL    HW270916   5.398   0.916  11.045  0.4889  1.5022 -0.6253
23159SOL     OW70917   1.404   3.223   6.855  0.2527  0.1548 -0.0900
23159SOL    HW170918   1.310   3.237   6.850  0.2758  0.1694 -0.4571
23159SOL    HW270919   1.429   3.265   6.938 -0.1597 -0.4138  0.3295
23160SOL     OW70920   0.724   3.649   6.094  0.3351 -0.2184  0.0895
23160SOL    HW170921   0.738   3.565   6.137  1.8618  0.4196  0.9245
23160SOL    HW270922   0.807   3.696   6.106  0.1092  0.7618 -1.8448
23161SOL     OW70923   3.705   2.779  10.275 -0.2222  0.3860  0.3000
23161SOL    HW170924   3.761   2.708  10.245  0.2729  0.6492  0.5857
23161SOL    HW270925   3.624   2.769  10.225 -0.5325 -0.9654  1.0304
23162SOL     OW70926   2.963   5.955  10.849 -0.1878  0.2091  0.0293
23162SOL    HW170927   2.951   6.046  10.874 -0.9326  0.4893 -1.2197
23162SOL    HW270928   2.923   5.949  10.762  1.1982 -0.9464 -0.5756
23163SOL     OW70929   1.619   1.503  12.176  0.1994  0.0463  0.4075
23163SOL    HW170930   1.641   1.588  12.214  0.9220 -0.6039  1.4965
23163SOL    HW270931   1.627   1.516  12.082 -1.0244  1.5365  0.4592
23164SOL     OW70932   5.262   6.729   3.808  0.1050 -0.7178 -0.2714
23164SOL    HW170933   5.172   6.732   3.840  0.5838 -2.2825  1.3905
23164SOL    HW270934   5.274   6.638   3.781  1.4327 -0.7394  0.3402
23165SOL     OW70935   3.574   6.475   9.201 -0.2670 -0.2421 -0.0014
23165SOL    HW170936   3.600   6.542   9.264  1.8334 -0.0068 -1.0149
23165SOL    HW270937   3.544   6.524   9.125 -0.2861 -0.4706 -0.1417
23166SOL     OW70938   5.398   4.024   4.912 -0.2518 -0.0159  0.5663
23166SOL    HW170939   5.485   4.033   4.953 -0.9382  1.0704  1.8879
23166SOL    HW270940   5.364   4.113   4.909 -2.1156 -0.6049  1.9617
23167SOL     OW70941   1.082   3.908   1.475 -0.6537  0.3430  0.7339
23167SOL    HW170942   1.106   3.979   1.534 -1.1042  2.3403 -1.3839
23167SOL    HW270943   1.102   3.941   1.388  0.4163 -2.6687 -0.2848
23168SOL     OW70944   2.487   4.837   0.607  0.0297 -0.3207  0.6413
23168SOL    HW170945   2.503   4.799   0.521  1.1182  1.0571  0.1961
23168SOL    HW270946   2.392   4.853   0.609 -0.0384 -0.5424 -0.2282
23169SOL     OW70947   7.058   0.908   3.248  0.3780 -0.5062 -0.6834
23169SOL    HW170948   7.014   0.989   3.273  0.1249 -0.7366 -0.3947
23169SOL    HW270949   6.988   0.844   3.237  0.5720 -0.6718 -0.9796
23170SOL     OW70950   6.378   1.574   1.558  0.0552 -0.0697 -0.7689
23170SOL    HW170951   6.426   1.559   1.477 -0.8758  0.6251 -1.4733
23170SOL    HW270952   6.443   1.610   1.618  0.3906  1.0441 -1.7613
23171SOL     OW70953   7.742   1.167  11.020 -0.0629  0.1246 -0.5550
23171SOL    HW170954   7.743   1.260  11.041 -1.1780 -0.2039  1.1478
23171SOL    HW270955   7.816   1.131  11.069  0.3988  0.1083 -1.2540
23172SOL     OW70956   6.678   7.759   8.219  0.2802  0.0330  0.3848
23172SOL    HW170957   6.697   7.768   8.312 -1.0333 -0.2786  0.6958
23172SOL    HW270958   6.678   7.665   8.203 -2.3936 -0.0983  0.7412
23173SOL     OW70959   5.431   4.167  11.574 -0.1375 -0.0702  0.1348
23173SOL    HW170960   5.395   4.120  11.649 -0.2547 -0.5808 -0.2348
23173SOL    HW270961   5.526   4.159  11.584 -0.1464  0.2422  0.4650
23174SOL     OW70962   6.736   7.612   5.302 -0.3441 -0.0700  0.0532
23174SOL    HW170963   6.690   7.634   5.220  1.0710 -1.3768 -1.1524
23174SOL    HW270964   6.681   7.545   5.342 -2.0080  1.8518  1.1792
23175SOL     OW70965   1.344   7.768   3.855  0.1183  0.2201 -0.3705
23175SOL    HW170966   1.320   7.807   3.771  1.8377 -0.4844 -1.2111
23175SOL    HW270967   1.422   7.816   3.882  0.3301 -0.4365  0.2000
23176SOL     OW70968   4.116   6.295   0.824  0.3128  0.2091 -0.0500
23176SOL    HW170969   4.146   6.385   0.807 -0.3305  0.3663 -0.3704
23176SOL    HW270970   4.051   6.278   0.756  0.1129 -0.3445  0.2732
23177SOL     OW70971   1.104   5.545   7.975  0.3745  0.2184 -0.0399
23177SOL    HW170972   1.046   5.491   7.920  1.5511  0.3472 -1.4795
23177SOL    HW270973   1.078   5.635   7.956  0.7417  0.2613 -0.3500
23178SOL     OW70974   2.945   3.795  10.914 -0.0214 -0.5397  0.5441
23178SOL    HW170975   2.897   3.712  10.918 -0.3348 -0.3238  1.8187
23178SOL    HW270976   2.942   3.829  11.003 -0.4976  1.1904 -0.0837
23179SOL     OW70977   4.434   7.379  11.650  0.2590 -0.3932 -0.5411
23179SOL    HW170978   4.418   7.352  11.741 -0.2678  1.2043 -0.1176
23179SOL    HW270979   4.433   7.297  11.600  0.2527 -1.2768  0.8451
23180SOL     OW70980   1.129   5.216   5.037 -0.0688  0.2902  0.6311
23180SOL    HW170981   1.194   5.184   4.974  1.7010  0.7219  2.1183
23180SOL    HW270982   1.045   5.206   4.993  1.1013  1.0737 -2.0089
23181SOL     OW70983   2.814   2.006  12.046  0.2540  0.2615 -0.3653
23181SOL    HW170984   2.757   2.039  11.976 -0.7735  0.3462  0.4873
23181SOL    HW270985   2.900   2.000  12.006 -0.5302 -0.7690 -1.9724
23182SOL     OW70986   4.766   6.912  10.869 -0.2517  0.1884  0.3404
23182SOL    HW170987   4.698   6.975  10.892  0.1023  0.9699 -0.6664
23182SOL    HW270988   4.845   6.966  10.856  0.5318 -0.6747  1.3205
23183SOL     OW70989   0.507   1.395   8.085  0.1630 -0.5807  0.2141
23183SOL    HW170990   0.559   1.457   8.033 -2.8616  0.7653 -1.4595
23183SOL    HW270991   0.493   1.321   8.026 -0.2760 -0.6676  0.4230
23184SOL     OW70992   7.398   4.869  10.958  0.2970  0.1946  0.6219
23184SOL    HW170993   7.318   4.829  10.924  0.1368  1.8528 -1.0544
23184SOL    HW270994   7.368   4.929  11.026  0.5781 -2.7046  3.5797
23185SOL     OW70995   5.228   3.215   9.267  0.6159  0.7105 -0.9876
23185SOL    HW170996   5.290   3.143   9.258  0.4589  0.5053 -0.4224
23185SOL    HW270997   5.150   3.175   9.305  1.0752  1.4538  0.8317
23186SOL     OW70998   1.813   2.925  10.256 -0.6021  0.7698 -0.0144
23186SOL    HW170999   1.874   2.983  10.212  1.9060  1.4456  3.8806
23186SOL    HW271000   1.779   2.977  10.330  0.9039 -2.1494  3.0003
23187SOL     OW71001   4.373   2.214   0.632  0.5763 -0.1061  0.4845
23187SOL    HW171002   4.351   2.297   0.674  0.6281  0.0723  0.1583
23187SOL    HW271003   4.289   2.178   0.604  0.6787  0.5987 -0.8055
23188SOL     OW71004   3.113   5.732   4.434  0.3504 -0.2394 -0.2029
23188SOL    HW171005   3.136   5.698   4.521 -0.5527 -2.5282 -0.7567
23188SOL    HW271006   3.087   5.823   4.449  0.4122 -0.5258  1.9001
23189SOL     OW71007   7.836   5.597   6.563 -0.2520  0.3326 -0.3065
23189SOL    HW171008   7.749   5.596   6.603  0.4576  0.2075  1.3071
23189SOL    HW271009   7.888   5.538   6.617  0.9064  0.5908 -1.0991
23190SOL     OW71010   2.095   1.209   5.923 -0.2723 -0.0215 -0.3380
23190SOL    HW171011   2.085   1.139   5.987 -0.3733  0.1582 -0.1546
23190SOL    HW271012   2.185   1.241   5.935  0.0930 -0.7367 -1.0622
23191SOL     OW71013   1.109   3.893   1.860 -0.1907 -0.4102 -0.5701
23191SOL    HW171014   1.151   3.955   1.800 -0.8245  0.7783  0.1814
23191SOL    HW271015   1.143   3.807   1.833  2.6182  0.4360 -0.1098
23192SOL     OW71016   2.347   7.284   9.628  0.0369  0.1639 -0.2059
23192SOL    HW171017   2.335   7.192   9.649  0.4770  0.0035 -0.6277
23192SOL    HW271018   2.266   7.326   9.656  0.0251 -0.2698  0.4414
23193SOL     OW71019   0.672   3.316   2.051 -0.0845 -0.0025 -0.8047
23193SOL    HW171020   0.737   3.255   2.086  0.7981  1.4796  0.2678
23193SOL    HW271021   0.699   3.331   1.960  0.5310 -0.0976 -0.6384
23194SOL     OW71022   4.180   0.009   6.667 -0.6954 -0.1022 -0.0807
23194SOL    HW171023   4.244   0.080   6.668 -1.5334  0.6599  0.3404
23194SOL    HW271024   4.216  -0.055   6.605  0.8929 -0.0959  0.7798
23195SOL     OW71025   7.021   3.728   4.907  0.4275 -0.1485  0.2167
23195SOL    HW171026   7.058   3.695   4.826 -1.5786 -2.0076 -0.0563
23195SOL    HW271027   7.069   3.682   4.976  0.5098 -0.4141 -0.0149
23196SOL     OW71028   3.189   6.109   2.193 -0.5433 -0.3462 -0.0889
23196SOL    HW171029   3.234   6.152   2.121  0.4039 -0.6293  0.3118
23196SOL    HW271030   3.096   6.125   2.177 -0.2352  2.4674  0.4080
23197SOL     OW71031   1.140   5.126   3.766 -0.5396 -0.7091 -0.0653
23197SOL    HW171032   1.139   5.213   3.804  1.7936 -1.2442  1.3872
23197SOL    HW271033   1.184   5.071   3.831 -0.6924 -2.6883 -1.5226
23198SOL     OW71034   5.566   2.277   7.609  0.5024 -0.5109  0.3942
23198SOL    HW171035   5.611   2.220   7.547 -0.8143  0.0538 -1.1334
23198SOL    HW271036   5.557   2.361   7.564 -3.3012 -0.9859 -0.0344
23199SOL     OW71037   6.593   0.230   4.515  0.4363 -0.7699  0.2580
23199SOL    HW171038   6.589   0.325   4.511 -1.3073 -0.3433  5.3133
23199SOL    HW271039   6.683   0.211   4.542 -0.2318 -0.0661  3.2771
23200SOL     OW71040   6.298   2.284   5.132 -0.3736  0.2449  0.2065
23200SOL    HW171041   6.362   2.291   5.061 -0.0868  0.1798  0.4571
23200SOL    HW271042   6.350   2.264   5.210 -0.7477 -0.2842  0.3229
23201SOL     OW71043   2.339   6.134   3.420  0.5530  0.2368  0.4206
23201SOL    HW171044   2.284   6.130   3.498  1.1302 -0.7836  0.7939
23201SOL    HW271045   2.342   6.044   3.388 -2.0779  1.0113 -2.5160
23202SOL     OW71046   0.066   0.629   7.841 -0.4644  0.3343 -0.5779
23202SOL    HW171047   0.006   0.690   7.797  0.4364  1.2776 -0.5628
23202SOL    HW271048   0.153   0.665   7.821  0.0137 -0.0024  0.8514
23203SOL     OW71049   0.262   4.425   1.332 -0.0994  0.2483  0.0113
23203SOL    HW171050   0.261   4.359   1.262  0.0956 -1.7251  1.7739
23203SOL    HW271051   0.291   4.377   1.410  1.4731  2.7627  1.0963
23204SOL     OW71052   4.703   2.848  10.170  0.0729  0.0208  0.4046
23204SOL    HW171053   4.703   2.855  10.075 -0.2316 -2.6164  0.1576
23204SOL    HW271054   4.781   2.896  10.198  0.4920  0.3129 -1.2066
23205SOL     OW71055   6.682   1.969   3.162  0.3340  0.4324 -0.4900
23205SOL    HW171056   6.623   1.916   3.108 -0.4583 -0.2876  1.0167
23205SOL    HW271057   6.716   1.907   3.227  1.4758  1.2133 -0.3243
23206SOL     OW71058   6.893   0.929   8.876 -0.0042  0.1040  0.5858
23206SOL    HW171059   6.801   0.901   8.879 -0.0066 -0.2055 -1.1013
23206SOL    HW271060   6.911   0.940   8.782  1.3227  1.3941  0.9576
23207SOL     OW71061   5.111   6.986  10.196 -0.1482 -0.0759  0.1702
23207SOL    HW171062   5.138   6.977  10.287  1.7219 -0.3693 -0.3493
23207SOL    HW271063   5.072   7.073  10.190 -1.1763 -0.4316  1.4270
23208SOL     OW71064   3.739   6.499   7.512 -0.7188  0.0450 -0.2968
23208SOL    HW171065   3.654   6.519   7.550 -0.7206 -1.2917  0.4456
23208SOL    HW271066   3.750   6.405   7.525 -0.1057 -0.2206 -2.4029
23209SOL     OW71067   3.936   7.489   3.388  0.0990  0.0796  0.1859
23209SOL    HW171068   3.950   7.563   3.329 -1.9720  2.0997  2.0184
23209SOL    HW271069   4.021   7.472   3.427  0.5581  1.8024  0.0120
23210SOL     OW71070   5.636   4.684   0.176  0.4066  0.1159 -0.5225
23210SOL    HW171071   5.568   4.731   0.128 -0.3991 -0.1303  0.3348
23210SOL    HW271072   5.675   4.624   0.112 -1.5236 -1.1469 -0.6091
23211SOL     OW71073   4.980   1.316   6.338  0.1187  0.7653 -0.4188
23211SOL    HW171074   5.059   1.285   6.294  0.1459  0.8311 -0.4153
23211SOL    HW271075   5.004   1.400   6.375  0.0030  0.8548 -0.5452
23212SOL     OW71076   0.629   7.965  10.490 -0.0934 -0.0577 -0.1873
23212SOL    HW171077   0.643   7.957  10.584  0.6115  0.1477 -0.2730
23212SOL    HW271078   0.667   8.049  10.466 -1.2740  0.4124 -0.4764
23213SOL     OW71079   7.303   5.082  10.192 -0.6548  0.2072  0.2956
23213SOL    HW171080   7.214   5.116  10.194 -0.4342  0.9609 -1.1765
23213SOL    HW271081   7.351   5.143  10.136  0.7354 -0.3178  0.8595
23214SOL     OW71082   7.340   1.998   0.205  0.4431 -0.1855  0.3028
23214SOL    HW171083   7.425   1.988   0.247  1.3505 -0.6681 -1.5172
23214SOL    HW271084   7.345   1.940   0.129 -1.6961 -0.5688  0.3969
23215SOL     OW71085   0.887   2.325   6.615  0.1404  0.1808 -0.1394
23215SOL    HW171086   0.965   2.342   6.562 -0.4025 -0.1100 -1.0437
23215SOL    HW271087   0.900   2.380   6.693  0.8195  0.8327 -0.6884
23216SOL     OW71088   6.801   3.779  10.430 -0.1868  0.4130 -0.4451
23216SOL    HW171089   6.720   3.787  10.481  1.0606 -0.3416  1.8025
23216SOL    HW271090   6.848   3.706  10.471  1.9520  1.2884 -1.2081
23217SOL     OW71091   1.433   0.364   4.757 -0.2092  0.0420 -0.2686
23217SOL    HW171092   1.408   0.427   4.824 -0.5017  0.1101 -0.4403
23217SOL    HW271093   1.430   0.279   4.802  0.0035  0.1292 -0.0870
23218SOL     OW71094   3.068   5.818   2.225 -0.4562  0.1487 -0.2561
23218SOL    HW171095   2.991   5.796   2.278  1.9856 -2.7615  2.5125
23218SOL    HW271096   3.075   5.913   2.232 -2.5283  0.2497  1.3618
23219SOL     OW71097   0.210   5.051  10.498  0.4870  0.5162  0.5093
23219SOL    HW171098   0.179   5.023  10.412  2.5723 -0.9541  0.1510
23219SOL    HW271099   0.155   5.126  10.520 -2.1451 -0.9169 -0.6951
23220SOL     OW71100   0.785   7.855   1.972  0.0136  0.1513 -0.4819
23220SOL    HW171101   0.757   7.809   2.051  1.3346  0.7730  0.3733
23220SOL    HW271102   0.707   7.856   1.916 -0.9029 -0.4160  0.7427
23221SOL     OW71103   2.641   0.340   0.715  0.3026  0.3311 -0.2055
23221SOL    HW171104   2.643   0.368   0.624 -1.0398  1.6093  0.1157
23221SOL    HW271105   2.651   0.421   0.766 -1.7013  0.0552  0.7519
23222SOL     OW71106   0.730   3.889   8.242  0.0690  0.3535 -0.0925
23222SOL    HW171107   0.798   3.883   8.175 -0.2343 -0.2108 -0.3555
23222SOL    HW271108   0.648   3.870   8.196  0.0020 -1.5312  0.6886
23223SOL     OW71109   1.957   3.961   4.070  0.1511  0.2102 -0.2242
23223SOL    HW171110   2.015   3.982   3.997  0.6706 -0.5963 -0.0660
23223SOL    HW271111   1.991   4.011   4.144  1.1026 -0.7875  0.0424
23224SOL     OW71112   2.806   4.278   9.855 -0.4305 -0.1073 -0.1214
23224SOL    HW171113   2.794   4.238   9.942 -0.0898 -0.9389 -0.4438
23224SOL    HW271114   2.723   4.324   9.838 -0.7243 -0.4385  0.3908
23225SOL     OW71115   1.667   2.827   8.882 -0.4170  0.0131  0.0209
23225SOL    HW171116   1.618   2.782   8.814  0.5858 -1.1139  0.0070
23225SOL    HW271117   1.616   2.814   8.962 -1.6585  1.4450 -0.4929
23226SOL     OW71118   3.139   3.355   5.866 -0.4777 -0.5164  0.3891
23226SOL    HW171119   3.054   3.324   5.835  0.9339 -1.4971 -2.9872
23226SOL    HW271120   3.155   3.435   5.815  0.3784 -0.0266  1.4013
23227SOL     OW71121   3.239   1.756  10.030 -0.3958  0.3384  0.0325
23227SOL    HW171122   3.275   1.679   9.987 -0.8005 -0.1058  0.4898
23227SOL    HW271123   3.147   1.735  10.045 -0.1179  0.2344  1.6895
23228SOL     OW71124   1.863   7.528   5.221 -0.4961 -0.0639  0.9757
23228SOL    HW171125   1.772   7.519   5.250 -0.5591 -0.0375  0.7854
23228SOL    HW271126   1.884   7.442   5.183 -0.8493  0.3255 -0.1377
23229SOL     OW71127   6.685   3.939   1.876  0.1604 -0.0154  0.1434
23229SOL    HW171128   6.624   3.981   1.816  2.2728  0.5742 -1.7210
23229SOL    HW271129   6.690   3.999   1.950 -1.6575 -0.2094  0.4689
23230SOL     OW71130   2.179   2.793   1.870 -0.1838  0.2302  0.3231
23230SOL    HW171131   2.268   2.816   1.897  0.2767 -0.1751 -0.7866
23230SOL    HW271132   2.191   2.736   1.794 -1.4180  1.5467 -0.9234
23231SOL     OW71133   2.334   1.061  10.103 -0.5586  0.2979  0.1046
23231SOL    HW171134   2.253   1.016  10.126 -0.2801 -0.4217 -0.3057
23231SOL    HW271135   2.321   1.090  10.013  0.1986 -1.1291 -0.4852
23232SOL     OW71136   4.049   6.450   5.782 -0.2561 -0.2199  0.0094
23232SOL    HW171137   4.014   6.400   5.855 -0.3587 -0.0582  0.0718
23232SOL    HW271138   3.993   6.428   5.708  0.6252 -1.3814 -0.3368
23233SOL     OW71139   4.806   2.202   2.188 -0.0369 -0.0470 -0.0660
23233SOL    HW171140   4.875   2.193   2.123  0.2322  1.2901  0.0035
23233SOL    HW271141   4.797   2.297   2.201 -1.0188 -0.2397  0.8446
23234SOL     OW71142   7.882   2.717   6.443  0.6057  0.2460  0.2225
23234SOL    HW171143   7.954   2.775   6.467  0.4359  1.4421 -1.8777
23234SOL    HW271144   7.811   2.743   6.501  1.5534 -0.2907  1.6672
23235SOL     OW71145   3.249   4.344  11.570  0.0286  0.8092 -0.0154
23235SOL    HW171146   3.167   4.301  11.549 -0.4344  0.9908  1.2975
23235SOL    HW271147   3.225   4.436  11.585  0.5935  1.0202 -0.3834
23236SOL     OW71148   7.161   6.270   2.765  0.1977 -0.6097 -0.0599
23236SOL    HW171149   7.221   6.237   2.832  1.8099  2.0108 -0.0453
23236SOL    HW271150   7.202   6.246   2.682 -0.2152 -1.2322 -0.0883
23237SOL     OW71151   2.625   0.814   7.525  0.0447 -0.2475  0.1805
23237SOL    HW171152   2.627   0.719   7.527  0.2212 -0.2938 -1.4807
23237SOL    HW271153   2.539   0.837   7.560 -0.5067 -1.0726 -0.6005
23238SOL     OW71154   2.101   2.677  12.246 -0.3774 -0.2795 -0.3940
23238SOL    HW171155   2.167   2.640  12.187  0.7463  0.3877  0.4026
23238SOL    HW271156   2.068   2.755  12.200  0.7292  0.4258 -0.0345
23239SOL     OW71157   5.584   4.559  10.708  0.2653  0.0751  0.1041
23239SOL    HW171158   5.533   4.569  10.627  0.2250 -0.8956 -0.0024
23239SOL    HW271159   5.523   4.516  10.768  0.1540  1.1669  0.8080
23240SOL     OW71160   0.066   4.843   1.458 -0.0535  0.2250 -0.3043
23240SOL    HW171161   0.152   4.808   1.435  2.0405  1.5400  4.3378
23240SOL    HW271162   0.056   4.920   1.402  1.7281 -0.0329 -1.0632
23241SOL     OW71163   6.894   4.714   8.578  0.0212  0.1369  0.3981
23241SOL    HW171164   6.866   4.673   8.496  1.8208 -2.2244  0.8262
23241SOL    HW271165   6.906   4.806   8.556 -3.4953  0.4431 -0.8566
23242SOL     OW71166   3.546   7.957   5.189 -0.2836 -0.0987 -0.2229
23242SOL    HW171167   3.508   7.903   5.119 -0.1360 -0.1352 -0.2756
23242SOL    HW271168   3.639   7.936   5.187 -0.4566 -1.0743  0.8299
23243SOL     OW71169   2.628   5.771   4.144  0.1619  0.4758  0.0583
23243SOL    HW171170   2.712   5.726   4.154  0.4482  0.9457 -0.1625
23243SOL    HW271171   2.580   5.750   4.223 -0.1430 -1.0982 -0.5113
23244SOL     OW71172   6.860   0.426  10.395 -0.0968  0.2381  0.3183
23244SOL    HW171173   6.907   0.469  10.323 -0.0680  1.0270  0.7891
23244SOL    HW271174   6.886   0.476  10.473 -1.5294  0.5492  0.6176
23245SOL     OW71175   2.028   1.774   8.209  0.2365 -0.3899  0.4782
23245SOL    HW171176   2.115   1.740   8.188 -0.2517 -1.2098 -0.3358
23245SOL    HW271177   2.021   1.855   8.159  0.9943  0.3643  1.5533
23246SOL     OW71178   0.086   0.105  11.338 -0.0420 -0.3838  0.2026
23246SOL    HW171179   0.148   0.033  11.342 -0.0165 -0.3341  1.0669
23246SOL    HW271180   0.137   0.182  11.363 -0.2113 -0.1696 -0.1019
23247SOL     OW71181   0.267   2.178   0.064 -0.4917 -0.1321  0.6243
23247SOL    HW171182   0.322   2.114   0.109 -1.2837  0.0897  1.9368
23247SOL    HW271183   0.280   2.159  -0.029  0.8866 -0.8397  0.9414
23248SOL     OW71184   0.988   0.848   8.508  0.6684  0.2603  0.3170
23248SOL    HW171185   1.076   0.854   8.543  1.6115  1.2257 -1.9692
23248SOL    HW271186   1.000   0.825   8.416 -1.5524 -0.9838  0.2586
23249SOL     OW71187   4.724   2.784   9.400  0.1313 -0.2894 -0.1897
23249SOL    HW171188   4.759   2.699   9.372  0.2316 -0.0026 -0.9329
23249SOL    HW271189   4.705   2.831   9.319 -1.4796 -0.2276  0.1770
23250SOL     OW71190   4.734   2.585   5.619  0.3066  0.2440  0.0152
23250SOL    HW171191   4.702   2.658   5.566  0.9003  1.2758  1.0369
23250SOL    HW271192   4.754   2.516   5.555 -3.6867 -0.4704 -0.7434
23251SOL     OW71193   2.565   6.430   5.572 -0.1270 -0.0915 -0.2075
23251SOL    HW171194   2.479   6.453   5.607  0.2836 -1.1841  1.6249
23251SOL    HW271195   2.625   6.492   5.614  0.0655  0.4354 -1.2084
23252SOL     OW71196   2.013   7.082  10.140  0.1636  0.1602 -0.5979
23252SOL    HW171197   1.951   7.124  10.199 -0.1190 -1.7488  0.5553
23252SOL    HW271198   2.092   7.135  10.146 -0.4622  1.0331  0.0937
23253SOL     OW71199   3.507   6.257   4.792 -0.7071 -0.2606  0.0588
23253SOL    HW171200   3.462   6.214   4.719  1.4237 -1.7538 -0.4620
23253SOL    HW271201   3.452   6.332   4.812 -2.5084 -1.0236 -1.6425
23254SOL     OW71202   4.230   1.236  11.874  0.2519 -0.5205  0.0317
23254SOL    HW171203   4.267   1.263  11.790  0.0645  0.9979  0.4005
23254SOL    HW271204   4.194   1.317  11.911 -1.5333 -1.5487  0.6473
23255SOL     OW71205   4.888   4.302   0.716 -0.5457  0.2530 -0.0602
23255SOL    HW171206   4.944   4.370   0.754 -0.2563  0.1350 -0.2776
23255SOL    HW271207   4.947   4.230   0.695 -0.9421 -0.3300  0.7552
23256SOL     OW71208   6.558   1.386   8.708  0.1734 -0.4520  0.3828
23256SOL    HW171209   6.530   1.475   8.686  0.2140 -0.3218  0.8401
23256SOL    HW271210   6.477   1.334   8.706  0.5511 -1.2408 -3.5390
23257SOL     OW71211   3.908   2.284   2.805  0.1734 -1.0097 -0.5042
23257SOL    HW171212   3.931   2.266   2.897 -1.2134  2.4114  0.6730
23257SOL    HW271213   3.813   2.273   2.802 -0.2269  1.8201 -0.6439
23258SOL     OW71214   0.381   2.256   4.363 -0.2088  0.3793 -0.1034
23258SOL    HW171215   0.304   2.281   4.312 -0.4950  1.2392  0.7316
23258SOL    HW271216   0.347   2.234   4.449  0.1089 -2.2660 -0.5673
23259SOL     OW71217   5.930   5.035   2.721 -0.5856  0.1854  0.6856
23259SOL    HW171218   5.956   4.949   2.753 -1.0452  0.4553  1.8452
23259SOL    HW271219   5.977   5.097   2.776  0.5651  0.7206 -0.8162
23260SOL     OW71220   5.831   5.347   9.866  0.4275 -0.2884  0.7196
23260SOL    HW171221   5.799   5.394   9.943  0.2185 -0.9442  1.0461
23260SOL    HW271222   5.780   5.266   9.865  1.2768 -0.8401  0.5985
23261SOL     OW71223   1.125   4.466   2.213  0.4298 -0.0402  0.3597
23261SOL    HW171224   1.034   4.488   2.232  0.5130  0.0348  0.6700
23261SOL    HW271225   1.175   4.540   2.245  0.5047  0.5541 -1.0513
23262SOL     OW71226   4.309   4.315   0.598  0.0974 -0.1813  0.2501
23262SOL    HW171227   4.395   4.353   0.619 -0.3103  0.8782  0.0625
23262SOL    HW271228   4.273   4.375   0.532 -0.7408 -0.6858  0.2475
23263SOL     OW71229   1.341   4.339  11.617  0.4967  0.0072  0.1661
23263SOL    HW171230   1.355   4.293  11.535 -0.4800  0.1590 -0.0930
23263SOL    HW271231   1.248   4.362  11.617  0.4122 -0.2451  1.4358
23264SOL     OW71232   6.994   5.622  11.183  0.2653  0.5276  0.0393
23264SOL    HW171233   7.072   5.573  11.209 -0.6334 -0.6371  0.6426
23264SOL    HW271234   7.028   5.694  11.129  1.7522  0.1024  0.3532
23265SOL     OW71235   7.318   1.812   2.650 -0.0861  0.4394 -0.8977
23265SOL    HW171236   7.234   1.837   2.690 -0.6101 -0.1883 -1.5630
23265SOL    HW271237   7.307   1.719   2.630  1.2569  0.0258  0.1771
23266SOL     OW71238   5.174   3.338   6.813  0.0147 -0.0262  0.3358
23266SOL    HW171239   5.100   3.278   6.819  1.4467 -2.0149 -0.4917
23266SOL    HW271240   5.162   3.384   6.731 -1.6157  1.6377  1.4404
23267SOL     OW71241   0.266   2.591   8.829  0.2176  0.1493 -0.3480
23267SOL    HW171242   0.190   2.536   8.807  0.9808 -0.6089 -1.2183
23267SOL    HW271243   0.228   2.671   8.864 -0.9600 -0.5872  0.1368
23268SOL     OW71244   5.609   6.301   9.654 -0.5254  0.0947  0.0543
23268SOL    HW171245   5.630   6.218   9.696 -0.1487 -0.0903 -0.4931
23268SOL    HW271246   5.623   6.367   9.722 -0.3855 -0.2430  0.3573
23269SOL     OW71247   3.369   0.919   1.021 -0.3112 -0.5662 -0.4727
23269SOL    HW171248   3.411   0.999   0.990 -0.0471 -0.1212  0.9980
23269SOL    HW271249   3.310   0.894   0.950 -0.5450  1.0244 -0.8617
23270SOL     OW71250   5.868   5.873   9.910  0.1152 -0.1400 -0.4357
23270SOL    HW171251   5.855   5.959   9.951  1.4412  0.4594 -1.2239
23270SOL    HW271252   5.787   5.859   9.860 -0.7849 -0.0960  0.9539
23271SOL     OW71253   4.272   5.052   2.221 -0.0876  0.2904 -0.4035
23271SOL    HW171254   4.299   5.137   2.186  1.2611 -0.1596 -0.5081
23271SOL    HW271255   4.279   5.061   2.316 -0.9360  0.5969 -0.3585
23272SOL     OW71256   6.912   6.686   4.608 -0.1037  0.5514 -0.2410
23272SOL    HW171257   6.879   6.624   4.673  3.2604 -0.3513  0.8089
23272SOL    HW271258   6.928   6.633   4.530  1.5269  0.3095  0.2259
23273SOL     OW71259   2.843   1.655   5.475 -0.0791 -0.4003 -0.3526
23273SOL    HW171260   2.789   1.734   5.468 -0.1975 -0.4797 -0.3385
23273SOL    HW271261   2.781   1.583   5.464 -0.1661 -0.5226  0.7871
23274SOL     OW71262   2.048   3.757   9.256  0.3895  0.5340  0.1684
23274SOL    HW171263   2.052   3.823   9.325 -1.2859  2.2091 -1.2391
23274SOL    HW271264   2.037   3.674   9.302 -0.0051  1.5291  1.9263
23275SOL     OW71265   4.941   0.465  10.559 -0.0730  0.4965 -0.5713
23275SOL    HW171266   4.956   0.559  10.561  0.3387  0.4330 -0.5011
23275SOL    HW271267   5.018   0.428  10.602  1.1558 -0.0204 -3.0237
23276SOL     OW71268   2.802   1.505   2.494  0.1145 -0.5340 -0.5168
23276SOL    HW171269   2.741   1.444   2.536  0.8030 -0.6960  0.2735
23276SOL    HW271270   2.771   1.592   2.521  0.6794 -0.6439  0.5444
23277SOL     OW71271   3.502   0.378   3.196  0.3424 -0.4356  0.2271
23277SOL    HW171272   3.503   0.296   3.245  0.0585  0.2846  1.4899
23277SOL    HW271273   3.467   0.354   3.110 -3.0495 -1.1162  1.6326
23278SOL     OW71274   5.157   7.152   4.664 -0.2814 -0.6607 -0.3674
23278SOL    HW171275   5.119   7.116   4.744 -0.2002  1.0374  0.4819
23278SOL    HW271276   5.251   7.132   4.671 -0.3875 -1.1881 -0.4251
23279SOL     OW71277   3.105   2.018   8.858  0.1589 -0.5104  0.3674
23279SOL    HW171278   3.082   2.110   8.841 -0.8693 -0.1066  3.2824
23279SOL    HW271279   3.197   2.021   8.883  0.5520 -0.5402 -0.9958
23280SOL     OW71280   6.449   6.976   7.136 -0.1517  0.3432 -0.0961
23280SOL    HW171281   6.399   6.997   7.215 -0.6469 -0.9742 -0.0369
23280SOL    HW271282   6.385   6.939   7.076  0.5116 -0.1661 -0.5095
23281SOL     OW71283   7.621   1.009   5.408 -0.5880 -0.6776  0.4280
23281SOL    HW171284   7.613   0.954   5.330 -2.7958 -1.2354  0.9659
23281SOL    HW271285   7.565   1.085   5.389  0.4720  0.1948  0.6916
23282SOL     OW71286   0.258   5.097   2.232 -0.1879  0.1113  0.3786
23282SOL    HW171287   0.239   5.007   2.260  3.1342 -0.6818  0.4688
23282SOL    HW271288   0.249   5.149   2.312 -0.7926 -0.3551  0.6262
23283SOL     OW71289   0.410   2.113  11.265  0.1470  0.0215 -0.6535
23283SOL    HW171290   0.448   2.200  11.251  1.1686 -0.6203 -2.1052
23283SOL    HW271291   0.330   2.113  11.214  0.4412 -0.0752 -1.1185
23284SOL     OW71292   3.191   6.544  11.471 -0.0448 -0.5043 -0.0320
23284SOL    HW171293   3.110   6.570  11.426 -0.3195 -1.2151  0.0229
23284SOL    HW271294   3.180   6.576  11.560 -0.4933 -1.0147  0.1044
23285SOL     OW71295   3.744   5.816   4.247 -0.1702  0.3893  0.0358
23285SOL    HW171296   3.820   5.759   4.259 -0.7144 -0.2894  0.3446
23285SOL    HW271297   3.682   5.762   4.197 -0.3435  1.0255 -0.4410
23286SOL     OW71298   7.622   1.863   9.987 -0.1751 -0.3805 -0.2272
23286SOL    HW171299   7.531   1.876   9.959  0.3016  0.5349 -1.4490
23286SOL    HW271300   7.643   1.773   9.961 -0.3532 -0.1794 -1.0995
23287SOL     OW71301   1.915   1.224   0.491  0.0422  0.0337  0.5225
23287SOL    HW171302   1.905   1.279   0.568 -1.8120 -1.6528  1.5974
23287SOL    HW271303   2.006   1.195   0.493  0.4306  1.2548  1.1780
23288SOL     OW71304   0.523   4.603   2.210 -0.3020 -0.2137 -0.1920
23288SOL    HW171305   0.442   4.592   2.160 -1.5961  0.3782  1.6562
23288SOL    HW271306   0.587   4.550   2.163 -1.4499  0.1787 -2.3521
23289SOL     OW71307   2.494   2.373   4.401  0.1810  0.8235  0.1445
23289SOL    HW171308   2.461   2.302   4.455 -0.3697  0.6020 -0.4695
23289SOL    HW271309   2.417   2.407   4.355  0.3971  1.9521  0.5768
23290SOL     OW71310   4.416   1.841   6.259  0.2364 -0.0999  0.8119
23290SOL    HW171311   4.355   1.804   6.323  1.0637 -0.4730  1.3928
23290SOL    HW271312   4.411   1.936   6.273  0.1728 -0.1614  1.2142
23291SOL     OW71313   5.951   1.504   0.478 -0.8584  0.2870  0.9090
23291SOL    HW171314   5.883   1.528   0.415 -2.1101  0.9627  2.4413
23291SOL    HW271315   6.008   1.581   0.483 -0.5104  0.0780  0.3364
23292SOL     OW71316   7.433   1.480   3.444 -0.2001  0.1168 -0.0752
23292SOL    HW171317   7.489   1.555   3.424  1.6787 -0.9196  1.1070
23292SOL    HW271318   7.474   1.406   3.400 -0.3109 -0.7655  1.2572
23293SOL     OW71319   6.258   0.805   7.874 -0.0856 -0.3230 -0.4156
23293SOL    HW171320   6.239   0.854   7.794 -0.5704 -3.4758 -2.4111
23293SOL    HW271321   6.281   0.872   7.938 -2.0232  2.5453 -2.4699
23294SOL     OW71322   6.854   7.018   6.204  0.0057 -0.1786  0.1594
23294SOL    HW171323   6.833   6.981   6.289 -0.0455 -2.0024 -0.5952
23294SOL    HW271324   6.898   7.101   6.224 -3.2351  1.3295  1.8784
23295SOL     OW71325   4.249   6.382   4.323  0.2287  0.1219 -0.0891
23295SOL    HW171326   4.341   6.360   4.338  0.6424  3.0466  2.6655
23295SOL    HW271327   4.201   6.334   4.390 -0.1275 -0.3085 -0.6378
23296SOL     OW71328   3.664   6.494  10.963 -0.4724  0.1391 -0.3170
23296SOL    HW171329   3.616   6.414  10.940 -0.6206 -0.0064  0.4858
23296SOL    HW271330   3.728   6.504  10.892  0.4788 -1.4480  0.2568
23297SOL     OW71331   0.492   3.238   4.587  0.1810 -0.5936  0.3455
23297SOL    HW171332   0.440   3.318   4.594  1.9175  0.6484 -0.2312
23297SOL    HW271333   0.496   3.221   4.493  2.9601  0.8917  0.1021
23298SOL     OW71334   3.007   0.023  10.696  0.7666  0.6444 -0.6800
23298SOL    HW171335   3.069   0.079  10.742 -0.9782  2.4374 -0.3732
23298SOL    HW271336   3.058  -0.017  10.625  2.9042 -0.1960  1.2106
23299SOL     OW71337   4.425   6.728   1.649 -0.0671 -0.1991 -0.4533
23299SOL    HW171338   4.366   6.799   1.673 -0.4855 -0.4054 -0.8505
23299SOL    HW271339   4.444   6.683   1.731  0.5466  0.6266 -0.1289
23300SOL     OW71340   2.644   1.408   5.487  0.1086  0.4320 -0.6619
23300SOL    HW171341   2.550   1.420   5.483 -0.1748 -1.0129  0.4471
23300SOL    HW271342   2.671   1.453   5.567  0.4813  1.4064 -1.3211
23301SOL     OW71343   6.149   0.523   0.106  0.1565  0.4330  0.4147
23301SOL    HW171344   6.165   0.483   0.020 -0.8927  0.7225  0.0685
23301SOL    HW271345   6.230   0.506   0.156 -0.0343 -1.6443  0.1116
23302SOL     OW71346   7.010   0.637  10.946  0.5990 -0.3128 -0.5008
23302SOL    HW171347   7.091   0.678  10.915 -0.1867  0.5242 -1.5436
23302SOL    HW271348   6.996   0.564  10.886  0.8131 -0.7288 -0.0444
23303SOL     OW71349   2.763   3.065   6.933  0.5973 -0.3481 -0.0834
23303SOL    HW171350   2.807   3.123   6.995 -0.2857 -0.9679  1.1741
23303SOL    HW271351   2.812   2.982   6.940  0.9054 -0.2216 -0.7217
23304SOL     OW71352   5.718   0.684   1.835  0.6778  0.7606 -0.3186
23304SOL    HW171353   5.630   0.657   1.861  1.6630 -0.0818  2.3715
23304SOL    HW271354   5.744   0.750   1.899  2.8623 -0.6864  0.4169
23305SOL     OW71355   7.850   4.341  10.081  0.2686 -0.2157  0.5775
23305SOL    HW171356   7.760   4.309  10.090 -0.6444  1.0945 -2.4806
23305SOL    HW271357   7.875   4.367  10.170 -2.9604  0.7927  1.3395
23306SOL     OW71358   2.933   0.277  11.271 -0.9010  0.3281 -0.0863
23306SOL    HW171359   2.855   0.328  11.252 -0.6125  2.0791  2.8244
23306SOL    HW271360   2.999   0.342  11.296 -0.2067 -1.2713  2.7723
23307SOL     OW71361   2.844   7.532   6.814 -0.9144  0.2598 -0.4791
23307SOL    HW171362   2.861   7.531   6.908  1.3793  0.0808 -0.8315
23307SOL    HW271363   2.852   7.624   6.788 -1.0341  0.2440 -0.5755
23308SOL     OW71364   4.112   5.543   2.834  0.3843  0.1500 -0.4782
23308SOL    HW171365   4.056   5.467   2.854 -1.3444  1.5033  0.0518
23308SOL    HW271366   4.185   5.534   2.896 -2.0114  1.1780  2.7907
23309SOL     OW71367   7.237   1.693  12.162 -0.2428  1.1259 -0.2706
23309SOL    HW171368   7.269   1.663  12.247  0.5692 -1.9896 -1.5503
23309SOL    HW271369   7.314   1.727  12.117  0.4765 -1.8565 -1.5174
23310SOL     OW71370   2.887   4.855   9.258 -0.3137  0.5665  0.1707
23310SOL    HW171371   2.937   4.780   9.292 -1.2211 -1.0935 -1.9364
23310SOL    HW271372   2.878   4.913   9.334  0.6856 -1.2875  1.8291
23311SOL     OW71373   4.825   6.370   4.721  0.0971 -0.2600  0.4344
23311SOL    HW171374   4.820   6.464   4.703  0.9205 -0.2351  0.3282
23311SOL    HW271375   4.756   6.355   4.786  1.0398  0.7359  1.7338
23312SOL     OW71376   3.001   7.974  10.285 -0.1870 -0.0192  0.3758
23312SOL    HW171377   2.910   7.950  10.298 -0.3573  0.5680  0.2928
23312SOL    HW271378   2.998   8.064  10.253  0.3296 -0.5419 -1.2755
23313SOL     OW71379   6.749   7.936   2.893 -0.4749 -0.6187 -0.0319
23313SOL    HW171380   6.673   7.892   2.930  0.1185 -0.5094  1.3898
23313SOL    HW271381   6.818   7.869   2.896  0.0210 -0.0912  0.6708
23314SOL     OW71382   6.181   1.966   4.314  0.3961 -0.3751  0.1879
23314SOL    HW171383   6.234   2.014   4.251 -1.8488 -0.5352 -1.9890
23314SOL    HW271384   6.171   1.879   4.275 -1.1376 -0.4511  0.6925
23315SOL     OW71385   0.248   2.737   4.863  0.0839 -0.0165 -0.0285
23315SOL    HW171386   0.311   2.749   4.934 -0.4771 -0.6798  0.5984
23315SOL    HW271387   0.163   2.751   4.904 -0.2174  0.2488 -0.7238
23316SOL     OW71388   5.414   4.792   0.071 -0.3159 -0.6470 -0.3732
23316SOL    HW171389   5.381   4.813   0.158 -0.2042 -1.6432 -0.0733
23316SOL    HW271390   5.339   4.752   0.026  0.3250 -2.5712  0.1824
23317SOL     OW71391   4.088   6.898  11.216 -0.0210  0.4810  0.0361
23317SOL    HW171392   4.138   6.847  11.153 -2.0879 -1.3861 -0.2172
23317SOL    HW271393   4.095   6.988  11.184  1.1984 -0.0402 -1.2933
23318SOL     OW71394   0.498   0.572   4.142  0.2588 -0.0397  0.0829
23318SOL    HW171395   0.436   0.498   4.142  0.1805  0.0246 -0.6519
23318SOL    HW271396   0.543   0.564   4.226 -0.8148 -0.0287  0.6834
23319SOL     OW71397   2.786   2.795   9.660 -0.1790  0.6565 -0.0331
23319SOL    HW171398   2.757   2.879   9.696 -1.2154 -0.5937  2.2793
23319SOL    HW271399   2.742   2.729   9.714 -1.2688 -1.4705 -3.2173
23320SOL     OW71400   5.685   6.242  10.206 -0.5656 -0.0813  0.6967
23320SOL    HW171401   5.594   6.220  10.191 -0.8134  1.2499  0.1063
23320SOL    HW271402   5.689   6.264  10.300 -0.4722 -1.7412  1.1100
23321SOL     OW71403   5.428   3.761   5.845 -0.1866 -0.3521 -0.4055
23321SOL    HW171404   5.361   3.829   5.853 -1.1359 -1.3694  0.6270
23321SOL    HW271405   5.472   3.760   5.930  1.6670  0.7685 -1.2746
23322SOL     OW71406   3.690   7.584   6.107  0.0134  0.1705 -0.3015
23322SOL    HW171407   3.700   7.606   6.199  1.5365 -2.6464  0.3298
23322SOL    HW271408   3.595   7.589   6.091 -0.5555 -1.3561  2.0805
23323SOL     OW71409   3.076   1.907   1.015  0.0738 -0.4239 -0.0047
23323SOL    HW171410   3.043   1.863   0.937  1.0992  0.0121 -0.7075
23323SOL    HW271411   3.161   1.866   1.032  0.6357  0.6389 -0.1418
23324SOL     OW71412   5.965   6.752   5.703 -0.5701  0.6623 -0.3070
23324SOL    HW171413   6.030   6.821   5.686 -0.1051  0.8260  1.8395
23324SOL    HW271414   5.882   6.799   5.713 -0.2466  0.9554  1.1953
23325SOL     OW71415   1.567   6.466   2.137 -0.3762  0.2019  0.2970
23325SOL    HW171416   1.621   6.405   2.189  0.1821  0.6766  0.2868
23325SOL    HW271417   1.561   6.424   2.051  0.7608  0.5744  0.0184
23326SOL     OW71418   5.186   1.907   6.731  0.1173  0.0059  0.2062
23326SOL    HW171419   5.281   1.920   6.738 -0.2465  4.1095 -0.4240
23326SOL    HW271420   5.152   1.933   6.816 -0.6295  2.5308 -0.7701
23327SOL     OW71421   2.378   5.853   6.040 -0.2592  0.0660  0.0414
23327SOL    HW171422   2.463   5.818   6.068 -0.3011  0.2545  0.4059
23327SOL    HW271423   2.329   5.776   6.011  0.0003 -0.0549 -0.0764
23328SOL     OW71424   1.765   3.695  10.475  0.2008  0.0703 -0.4501
23328SOL    HW171425   1.816   3.675  10.554  0.7036  0.1006 -0.7595
23328SOL    HW271426   1.793   3.783  10.450 -0.5159  0.3608 -0.2368
23329SOL     OW71427   0.375   6.803  12.045 -0.0627  0.0133 -0.4152
23329SOL    HW171428   0.416   6.717  12.038  0.7915  0.1725  1.7804
23329SOL    HW271429   0.290   6.786  12.087 -0.7686  0.0580 -1.7822
23330SOL     OW71430   0.649   5.071   8.143  0.6639  0.5549  0.9282
23330SOL    HW171431   0.599   4.990   8.140  1.5425  0.0438 -0.3214
23330SOL    HW271432   0.668   5.083   8.236 -1.8126  0.8251  1.4701
23331SOL     OW71433   0.903   7.619   8.885  0.4640  0.5906 -0.1051
23331SOL    HW171434   0.820   7.595   8.842  1.0071  0.0794 -0.9034
23331SOL    HW271435   0.934   7.694   8.835  1.1036 -0.0112 -0.6430
23332SOL     OW71436   0.300   6.864  10.628 -0.0819 -0.2621  0.1217
23332SOL    HW171437   0.327   6.862  10.719  0.2285 -0.1138  0.0333
23332SOL    HW271438   0.321   6.777  10.594  1.6098  0.2822 -0.3239
23333SOL     OW71439   5.608   4.142   4.331  0.4645  0.6212 -0.8590
23333SOL    HW171440   5.610   4.163   4.424 -2.2985  0.4423 -0.6608
23333SOL    HW271441   5.648   4.218   4.288 -0.3271  1.7846  0.3736
23334SOL     OW71442   1.240   4.944  11.900  0.4108 -0.5718 -0.8880
23334SOL    HW171443   1.287   4.968  11.980 -1.6516 -0.4621  0.3541
23334SOL    HW271444   1.225   4.850  11.908  1.5197 -0.8588 -1.9152
23335SOL     OW71445   5.168   5.209   8.542 -0.2744 -0.2572 -0.0497
23335SOL    HW171446   5.175   5.114   8.545 -1.6770 -0.4679 -1.7246
23335SOL    HW271447   5.102   5.231   8.608  0.4397 -0.3537  0.7212
23336SOL     OW71448   7.010   4.738   7.976  0.6530 -0.1243  0.3676
23336SOL    HW171449   6.929   4.705   7.937  1.3123  0.3198 -1.4586
23336SOL    HW271450   7.046   4.664   8.024 -0.3907 -0.5755  0.4775
23337SOL     OW71451   0.876   7.352  12.383 -0.2966 -0.4443 -0.0322
23337SOL    HW171452   0.790   7.394  12.384 -0.0338  0.1362  1.4105
23337SOL    HW271453   0.898   7.342  12.476  1.5669  0.2045 -0.3750
23338SOL     OW71454   7.390   5.965  11.860 -0.1759  0.2608 -0.3356
23338SOL    HW171455   7.406   5.974  11.766 -0.9947 -1.2785 -0.6604
23338SOL    HW271456   7.435   5.883  11.884 -0.5360  0.2925  0.4702
23339SOL     OW71457   2.712   6.851  12.202 -0.3287  0.4306 -0.1871
23339SOL    HW171458   2.725   6.764  12.240  0.3162 -0.5585 -2.4717
23339SOL    HW271459   2.623   6.849  12.168 -0.3608  0.7021 -0.1186
23340SOL     OW71460   1.931   1.197   2.039 -0.0430 -0.2822 -0.0245
23340SOL    HW171461   1.878   1.157   1.971  0.3231  0.5939 -0.8561
23340SOL    HW271462   1.881   1.185   2.120 -1.8850  1.1221 -0.8681
23341SOL     OW71463   3.715   0.789   2.483 -0.3321  0.2933 -0.6565
23341SOL    HW171464   3.714   0.877   2.445  0.5658  0.1396 -1.0486
23341SOL    HW271465   3.663   0.736   2.423 -2.4329  0.8980  0.5085
23342SOL     OW71466   4.307   3.103   1.718 -0.1868 -0.2219  0.7171
23342SOL    HW171467   4.229   3.048   1.706  0.1371 -0.6326  0.4681
23342SOL    HW271468   4.273   3.192   1.719 -0.4687 -0.2462 -1.4780
23343SOL     OW71469   1.373   7.378   4.219  0.3474  0.3748  0.5994
23343SOL    HW171470   1.279   7.387   4.206  0.2789  1.7665  1.8049
23343SOL    HW271471   1.394   7.291   4.184 -1.1102  0.6278 -1.0624
23344SOL     OW71472   2.367   6.398   6.740 -0.3319  0.2269 -0.0894
23344SOL    HW171473   2.454   6.363   6.726 -0.2185  0.9409 -1.3878
23344SOL    HW271474   2.309   6.338   6.693 -0.4170  0.3467 -0.1382
23345SOL     OW71475   2.875   0.832  12.051  0.1642 -0.1340 -0.7897
23345SOL    HW171476   2.818   0.822  12.127  0.3888  0.5707 -0.5214
23345SOL    HW271477   2.962   0.807  12.083 -0.0404 -1.6238 -1.3071
23346SOL     OW71478   1.921   7.248   5.140  0.0273  0.1989  0.6799
23346SOL    HW171479   1.973   7.233   5.061  0.3891  0.1374  0.9270
23346SOL    HW271480   1.972   7.208   5.211 -0.5618 -0.2472  0.8654
23347SOL     OW71481   7.977   6.041   7.952  0.4408 -0.6041  0.5277
23347SOL    HW171482   7.911   5.981   7.988  1.2746 -3.0214 -1.6550
23347SOL    HW271483   8.038   6.055   8.024 -0.0714 -1.9963  1.2811
23348SOL     OW71484   2.926   1.040  11.563 -0.7929  0.0481 -0.5786
23348SOL    HW171485   2.955   1.029  11.472 -0.0484  2.3691 -0.6884
23348SOL    HW271486   2.841   0.997  11.566 -0.7113 -0.3297 -2.3013
23349SOL     OW71487   7.442   5.506   2.770  0.2625  0.0735  0.2529
23349SOL    HW171488   7.368   5.531   2.715  0.3905  0.1751  0.1248
23349SOL    HW271489   7.453   5.579   2.831  0.5181  0.2463  0.0009
23350SOL     OW71490   4.794   6.533   7.737 -0.2087 -0.0859 -0.2354
23350SOL    HW171491   4.879   6.514   7.777 -0.1851  0.8701  0.1877
23350SOL    HW271492   4.811   6.604   7.675 -0.6391 -0.0939 -0.3674
23351SOL     OW71493   7.593   5.949   3.905 -0.2814  0.1865  0.2660
23351SOL    HW171494   7.522   5.960   3.842 -0.9685 -0.8424  0.8282
23351SOL    HW271495   7.672   5.972   3.857 -0.9877  1.3395 -0.3758
23352SOL     OW71496   5.851   6.747  10.636 -0.0401 -0.0151 -0.0650
23352SOL    HW171497   5.943   6.731  10.661 -0.5714 -1.0166  1.4226
23352SOL    HW271498   5.800   6.707  10.707 -1.6457  0.0718 -1.1257
23353SOL     OW71499   0.379   2.912  12.415  0.5413  0.2005  0.2682
23353SOL    HW171500   0.377   2.868  12.330  1.6180  0.3949  0.1265
23353SOL    HW271501   0.352   2.845  12.478  0.5764 -0.1840 -0.1239
23354SOL     OW71502   5.398   7.305   9.284  0.1943 -0.5487  0.0219
23354SOL    HW171503   5.403   7.372   9.352 -1.0774  0.2622 -0.6407
23354SOL    HW271504   5.468   7.244   9.305  1.8009  1.3063  0.2795
23355SOL     OW71505   0.707   3.327   0.828 -0.3495 -0.3490 -0.3087
23355SOL    HW171506   0.781   3.366   0.781 -0.0801 -1.5713 -0.9342
23355SOL    HW271507   0.631   3.379   0.801  0.2533  0.9768  0.4061
23356SOL     OW71508   5.447   6.963   4.502  0.0905  0.2357  0.5147
23356SOL    HW171509   5.460   7.006   4.587  0.8578 -0.3425  0.7030
23356SOL    HW271510   5.488   7.021   4.439 -2.6158  1.9221  0.1707
23357SOL     OW71511   2.447   6.199   6.922 -0.1392  0.4014  0.2619
23357SOL    HW171512   2.351   6.204   6.928 -0.0507 -0.1216  3.3585
23357SOL    HW271513   2.478   6.210   7.012  2.5240 -3.4714  0.0470
23358SOL     OW71514   3.053   0.056   7.770  0.1096  0.0345  0.1627
23358SOL    HW171515   3.051   0.107   7.851 -0.8700 -0.4212  0.4385
23358SOL    HW271516   3.135   0.081   7.728  0.6616  0.2313  1.3222
23359SOL     OW71517   2.768   0.335   4.539 -0.2374 -0.1170 -0.2323
23359SOL    HW171518   2.683   0.316   4.499  0.0517 -0.5241 -0.6794
23359SOL    HW271519   2.823   0.259   4.515  0.0213 -0.2432  0.7288
23360SOL     OW71520   2.564   6.248   8.996 -0.1432 -0.0732  0.1272
23360SOL    HW171521   2.600   6.200   9.071  0.6841  2.2360  1.3109
23360SOL    HW271522   2.469   6.247   9.009 -0.2752 -2.4132 -0.6001
23361SOL     OW71523   4.001   3.688   4.885  0.1545 -0.5857 -0.5892
23361SOL    HW171524   3.931   3.647   4.936 -0.0884  0.6497  0.1094
23361SOL    HW271525   3.956   3.727   4.810 -0.2099  1.6025  0.6792
23362SOL     OW71526   1.932   2.830   8.879  0.5294  0.4597  0.3947
23362SOL    HW171527   1.837   2.837   8.886  0.4624 -0.4653  0.6270
23362SOL    HW271528   1.951   2.838   8.786  0.3267  1.6196  0.4395
23363SOL     OW71529   0.839   6.974  10.119  0.5159  0.1017 -0.4781
23363SOL    HW171530   0.863   7.060  10.153 -0.1882  0.4628 -0.8677
23363SOL    HW271531   0.766   6.946  10.173  1.1802 -0.5656  0.0880
23364SOL     OW71532   6.732   1.306   4.155  0.2038  0.1711 -0.3467
23364SOL    HW171533   6.720   1.372   4.223 -2.1491  0.8279 -1.3321
23364SOL    HW271534   6.764   1.354   4.079 -2.0019  0.3722 -1.2292
23365SOL     OW71535   3.377   3.287  12.349 -0.0969  0.2081 -0.0376
23365SOL    HW171536   3.429   3.264  12.426  0.2510  2.5307  0.4910
23365SOL    HW271537   3.442   3.295  12.279  0.1815  2.1030  0.3928
23366SOL     OW71538   3.721   6.227   7.542 -0.1140 -0.0726  0.3382
23366SOL    HW171539   3.793   6.164   7.541 -1.0893 -1.2183 -0.3728
23366SOL    HW271540   3.666   6.200   7.616  1.4475  2.3540  2.5359
23367SOL     OW71541   5.718   2.232   7.108  0.4984  0.1525  0.4291
23367SOL    HW171542   5.782   2.288   7.064  0.9910 -0.8281 -0.1402
23367SOL    HW271543   5.636   2.280   7.101  1.2488  1.7272  1.7031
23368SOL     OW71544   0.657   5.665   9.242  0.0025  0.3696 -0.7071
23368SOL    HW171545   0.694   5.608   9.174  0.8868 -0.0761  0.1144
23368SOL    HW271546   0.564   5.645   9.242  0.3910 -1.7013  0.0835
23369SOL     OW71547   0.687   4.159   7.933  0.1680  0.2755  0.1742
23369SOL    HW171548   0.674   4.207   8.015 -0.1760  0.0972  0.2280
23369SOL    HW271549   0.757   4.207   7.888  0.2396  0.4759  0.4926
23370SOL     OW71550   4.887   2.455  11.332 -0.0877 -0.1154  0.0400
23370SOL    HW171551   4.869   2.370  11.373  1.9484 -1.1599 -1.0646
23370SOL    HW271552   4.861   2.443  11.240  0.5691  0.3036 -0.2058
23371SOL     OW71553   1.759   0.269   4.449 -0.5051  0.1754 -0.2892
23371SOL    HW171554   1.686   0.319   4.412 -0.2950  0.5439 -0.2137
23371SOL    HW271555   1.821   0.336   4.477 -0.0094 -0.1479 -0.6102
23372SOL     OW71556   4.543   6.510   4.342  0.2942 -0.7367  0.1096
23372SOL    HW171557   4.571   6.521   4.251 -0.0585 -0.5998  0.0147
23372SOL    HW271558   4.609   6.452   4.381  0.7432 -0.3729 -0.0911
23373SOL     OW71559   0.490   0.663  10.124 -0.5713  0.2018  0.3755
23373SOL    HW171560   0.530   0.582  10.092 -1.9932 -0.9160  1.2610
23373SOL    HW271561   0.427   0.687  10.056  1.7465  2.2061 -1.2312
23374SOL     OW71562   3.266   1.355   1.573  0.3520 -0.3060 -0.0865
23374SOL    HW171563   3.276   1.319   1.485  0.1675  0.6432 -0.5010
23374SOL    HW271564   3.225   1.440   1.561  0.6378 -0.0088  0.8906
23375SOL     OW71565   5.338   4.429   4.340  0.8516  0.5195 -0.0671
23375SOL    HW171566   5.296   4.379   4.270  2.5498  0.3236 -1.0087
23375SOL    HW271567   5.275   4.496   4.363 -0.4156 -0.4372 -0.6287
23376SOL     OW71568   1.138   0.760   6.584  0.1516  0.0792 -0.2073
23376SOL    HW171569   1.182   0.836   6.622 -1.1287  1.5150 -1.4578
23376SOL    HW271570   1.045   0.783   6.587 -0.1702 -0.8862 -1.7991
23377SOL     OW71571   6.040   1.554   3.854 -0.2614 -0.2528 -0.2482
23377SOL    HW171572   6.021   1.478   3.908 -1.7879  0.3476  0.1342
23377SOL    HW271573   5.977   1.620   3.883  2.4844  2.0030  1.0400
23378SOL     OW71574   4.158   3.762   1.408 -0.1149  0.1793 -0.1652
23378SOL    HW171575   4.200   3.803   1.484  0.1218 -2.1032  1.0339
23378SOL    HW271576   4.217   3.781   1.335  0.5534  0.9896  0.5654
23379SOL     OW71577   4.472   1.812   9.140 -0.5292 -0.3778 -0.5337
23379SOL    HW171578   4.389   1.857   9.149 -0.7516 -0.7992 -0.4772
23379SOL    HW271579   4.538   1.882   9.145 -0.8330 -0.1355  0.2494
23380SOL     OW71580   7.785   7.109   4.731 -0.1624  0.0967  0.3796
23380SOL    HW171581   7.809   7.189   4.685  1.3188 -0.0379  0.8768
23380SOL    HW271582   7.693   7.121   4.753 -0.2570  1.1842 -0.5065
23381SOL     OW71583   6.017   3.306   5.124  0.1903 -0.1693 -0.0815
23381SOL    HW171584   5.986   3.396   5.111  2.1111  0.5920  0.3033
23381SOL    HW271585   5.996   3.285   5.215  0.3883  0.1691  0.0424
23382SOL     OW71586   4.028   7.121   0.704  0.2019  0.6343  0.0261
23382SOL    HW171587   4.020   7.141   0.797 -1.3546  0.1618  0.0310
23382SOL    HW271588   4.083   7.191   0.669  2.8134 -0.4350  1.6620
23383SOL     OW71589   5.027   5.153   0.610  0.1274 -0.0747  0.3925
23383SOL    HW171590   4.981   5.082   0.564 -2.2250 -0.5250  3.1146
23383SOL    HW271591   4.975   5.231   0.592 -0.1086 -0.0263  1.2257
23384SOL     OW71592   0.831   3.511   6.561 -0.2925 -0.3211  0.2818
23384SOL    HW171593   0.860   3.600   6.542  0.0099 -0.7712 -1.4865
23384SOL    HW271594   0.855   3.498   6.653 -0.8598  1.5925  0.7575
23385SOL     OW71595   6.855   0.015  12.208  0.4853  0.1691  0.0131
23385SOL    HW171596   6.906   0.010  12.127  0.3710  0.3919 -0.0725
23385SOL    HW271597   6.789   0.082  12.191  0.9697  0.7986  0.5695
23386SOL     OW71598   1.751   3.043   7.063  0.3498  0.5407 -0.0767
23386SOL    HW171599   1.692   3.103   7.108  0.5769 -0.0122  0.9901
23386SOL    HW271600   1.839   3.071   7.091  0.5071  0.3234 -0.3456
23387SOL     OW71601   4.300   0.735   1.922  0.2592  0.0535  0.4675
23387SOL    HW171602   4.262   0.766   2.004  2.2213 -0.6822  1.7153
23387SOL    HW271603   4.394   0.748   1.931  0.5213  0.2894 -1.8389
23388SOL     OW71604   5.003   4.797  10.747 -0.1930 -0.3572 -0.0939
23388SOL    HW171605   5.003   4.877  10.800 -0.5642 -0.9455  0.7984
23388SOL    HW271606   5.096   4.779  10.732 -0.0374 -0.7863  1.2819
23389SOL     OW71607   7.508   0.354   4.384  0.4920 -0.6790  0.0983
23389SOL    HW171608   7.486   0.274   4.336 -2.0536 -1.9375  3.0089
23389SOL    HW271609   7.451   0.421   4.345  0.2588 -1.0701 -0.2442
23390SOL     OW71610   7.129   4.155   9.239  0.1975 -0.0863  0.4586
23390SOL    HW171611   7.039   4.185   9.224 -0.2018 -1.8674 -1.1453
23390SOL    HW271612   7.137   4.077   9.184  1.5645 -2.1278  3.2957
23391SOL     OW71613   0.089   6.896   6.148 -0.1306 -0.1692  0.2924
23391SOL    HW171614   0.060   6.861   6.063 -0.3502 -0.9741  0.6911
23391SOL    HW271615   0.108   6.988   6.130  2.2075 -0.8468 -1.2433
23392SOL     OW71616   5.776   5.608  10.396  0.0306  0.3791 -0.1656
23392SOL    HW171617   5.725   5.660  10.334 -0.0342 -0.1862 -0.5993
23392SOL    HW271618   5.711   5.565  10.451  0.0195 -0.4719 -0.8263
23393SOL     OW71619   1.851   5.702  11.185 -0.5337 -0.1863 -0.0493
23393SOL    HW171620   1.818   5.792  11.190  1.1862  0.6051 -1.7395
23393SOL    HW271621   1.828   5.673  11.097  0.2699 -0.8394 -0.0497
23394SOL     OW71622   6.578   5.197   6.502  0.0482 -0.1553 -0.2234
23394SOL    HW171623   6.623   5.262   6.555 -0.5080  0.8337 -0.9316
23394SOL    HW271624   6.585   5.229   6.412 -0.0055 -1.2153 -0.6322
23395SOL     OW71625   7.244   3.599   6.050  0.1190  0.3324  0.4918
23395SOL    HW171626   7.292   3.603   6.132  0.3865  1.0433  0.3083
23395SOL    HW271627   7.158   3.636   6.070 -0.4419 -1.0975  0.8623
23396SOL     OW71628   4.799   2.566   3.990 -0.0397  0.2693  0.2033
23396SOL    HW171629   4.850   2.618   4.052  0.4189 -0.6907  0.6608
23396SOL    HW271630   4.864   2.513   3.944 -0.2989  1.4433 -1.6026
23397SOL     OW71631   7.974   7.495   1.229  0.5036 -0.4291  0.1642
23397SOL    HW171632   8.028   7.538   1.295 -0.7031 -0.9350  1.5274
23397SOL    HW271633   7.958   7.407   1.263 -2.2448  0.1061  0.5242
23398SOL     OW71634   1.115   7.323   5.770  0.3410  0.1684 -0.2727
23398SOL    HW171635   1.085   7.407   5.735  1.2135 -0.1960 -1.9514
23398SOL    HW271636   1.196   7.343   5.816 -0.2107  0.4583  0.6038
23399SOL     OW71637   0.973   7.433   0.833  0.1629  0.6191  0.3818
23399SOL    HW171638   0.996   7.470   0.748 -0.7083 -1.9929 -1.0959
23399SOL    HW271639   0.877   7.426   0.832  0.1116  0.7721  1.6991
23400SOL     OW71640   2.417   7.540   4.400 -0.1720  0.0566  0.0083
23400SOL    HW171641   2.361   7.617   4.402  0.5501  0.6174 -0.7002
23400SOL    HW271642   2.506   7.574   4.410  0.1073 -0.7622  0.4940
23401SOL     OW71643   0.564   2.006   0.465 -0.4374  0.2777  0.0532
23401SOL    HW171644   0.508   2.026   0.540 -0.7788  0.1126 -0.1578
23401SOL    HW271645   0.628   1.943   0.498 -0.9209 -0.2075  0.0664
23402SOL     OW71646   7.276   4.048   3.444  0.1187  0.0621 -0.0282
23402SOL    HW171647   7.276   4.052   3.348 -0.4297  0.2758 -0.0209
23402SOL    HW271648   7.331   3.972   3.464 -0.5429 -0.5784 -0.5397
23403SOL     OW71649   3.291   3.481   8.678 -0.1428 -0.1313 -0.5896
23403SOL    HW171650   3.295   3.442   8.765 -0.0728 -0.4823 -0.7458
23403SOL    HW271651   3.370   3.536   8.672 -0.7827  0.8790  0.0205
23404SOL     OW71652   1.037   0.972   9.270  0.0595  0.5098  0.4948
23404SOL    HW171653   1.124   1.008   9.290 -0.7031  1.7421  1.7210
23404SOL    HW271654   1.013   1.013   9.187  0.7693 -0.0920 -0.0220
23405SOL     OW71655   5.180   0.261   2.390  0.2503  0.2949 -0.2182
23405SOL    HW171656   5.118   0.325   2.425  0.7286 -0.1376  1.4807
23405SOL    HW271657   5.256   0.313   2.365 -0.1222  0.6169 -0.7043
23406SOL     OW71658   3.122   2.338  11.439  0.3532  0.3150 -0.2018
23406SOL    HW171659   3.068   2.289  11.376 -0.4459  1.7649 -0.6899
23406SOL    HW271660   3.062   2.357  11.511 -0.1791  2.8691 -1.2242
23407SOL     OW71661   6.442   4.611   2.009  0.3621  0.1696  0.3333
23407SOL    HW171662   6.359   4.598   1.964  0.1661  0.0892  0.7085
23407SOL    HW271663   6.509   4.578   1.949  0.5132  3.5405 -1.6245
23408SOL     OW71664   7.099   2.882   1.157 -0.3257  0.2741 -0.4163
23408SOL    HW171665   7.062   2.827   1.226 -0.3288 -0.0252 -0.6554
23408SOL    HW271666   7.139   2.820   1.096  1.2306  0.6321  0.2107
23409SOL     OW71667   5.161   5.839  11.469  0.3815  0.2538 -0.3336
23409SOL    HW171668   5.110   5.856  11.389 -0.2950  0.1713  0.0660
23409SOL    HW271669   5.099   5.855  11.540 -0.0056 -2.7014  0.1155
23410SOL     OW71670   1.082   7.464   6.177  0.3571 -0.3067 -0.2406
23410SOL    HW171671   1.159   7.507   6.214  1.2609  1.0137 -3.3643
23410SOL    HW271672   1.013   7.530   6.181  0.6572  0.1086 -1.4280
23411SOL     OW71673   6.668   1.933   4.388  0.3164  0.1151 -0.2576
23411SOL    HW171674   6.627   1.879   4.320 -0.2629 -1.3797  1.1943
23411SOL    HW271675   6.640   2.022   4.369 -0.0223 -0.2930 -1.8133
23412SOL     OW71676   2.660   1.713   0.882 -0.4036  0.0628  0.0724
23412SOL    HW171677   2.749   1.684   0.900 -0.4435  0.1686  0.4600
23412SOL    HW271678   2.645   1.693   0.790 -0.0306 -0.0886  0.0470
23413SOL     OW71679   3.076   0.395  10.699  0.2487 -0.1233  0.3480
23413SOL    HW171680   3.170   0.409  10.685  0.1751 -0.7356 -0.9560
23413SOL    HW271681   3.039   0.400  10.611 -1.2233  1.9460  1.0204
23414SOL     OW71682   2.407   0.959   9.734  0.7406  0.1844  0.3757
23414SOL    HW171683   2.382   0.942   9.644 -1.4416 -1.2158  1.1537
23414SOL    HW271684   2.391   0.876   9.779  0.0625  1.3089  2.3525
23415SOL     OW71685   0.915   4.306   3.609  0.0959  1.4267 -0.8267
23415SOL    HW171686   0.847   4.239   3.609 -0.2127  1.6565  1.3830
23415SOL    HW271687   0.871   4.384   3.574 -0.1414  1.0209 -1.4511
23416SOL     OW71688   0.401   2.984   8.048 -0.0021 -0.2736  0.6323
23416SOL    HW171689   0.456   3.061   8.060 -0.0289  0.4838 -2.8662
23416SOL    HW271690   0.315   3.010   8.080  0.4119  0.5189  1.1210
23417SOL     OW71691   6.654   2.277   0.080 -0.5388  0.1639 -0.0806
23417SOL    HW171692   6.657   2.273   0.175 -2.2479  0.6260  0.0262
23417SOL    HW271693   6.561   2.277   0.059 -0.2032 -1.0606 -1.8178
23418SOL     OW71694   3.260   5.594  11.875 -0.2409  0.2524  0.7098
23418SOL    HW171695   3.184   5.559  11.828 -0.1086  2.5913 -1.4526
23418SOL    HW271696   3.268   5.538  11.952 -2.2271 -2.0372 -0.5990
23419SOL     OW71697   3.491   7.822   8.656  0.7346 -0.2309 -0.1031
23419SOL    HW171698   3.554   7.798   8.723  1.8412  1.0348 -0.6332
23419SOL    HW271699   3.545   7.859   8.585 -0.4850 -0.4872 -1.2070
23420SOL     OW71700   2.236   2.945   0.226  0.3749 -0.0187 -0.4185
23420SOL    HW171701   2.269   2.970   0.140 -0.9108 -0.8151 -1.1761
23420SOL    HW271702   2.281   3.004   0.287 -0.1800  1.9349 -1.7980
23421SOL     OW71703   4.194   6.974   0.490 -0.1543 -0.0035  0.1424
23421SOL    HW171704   4.285   7.001   0.483  0.7352 -3.0108 -1.8713
23421SOL    HW271705   4.172   6.986   0.582  2.0279  1.4484  0.5377
23422SOL     OW71706   0.704   6.629  11.414  0.3541 -0.0167 -0.3333
23422SOL    HW171707   0.787   6.672  11.435  1.1139 -1.2177 -0.7588
23422SOL    HW271708   0.639   6.679  11.463  1.4244  0.4617  0.6750
23423SOL     OW71709   2.907   6.030  11.429  0.0653 -0.2180  0.0888
23423SOL    HW171710   2.944   5.986  11.352  0.6375  1.6271 -0.7317
23423SOL    HW271711   2.823   6.065  11.399  0.3591  0.6402  0.2573
23424SOL     OW71712   3.573   6.508   1.189 -0.4642 -0.3511  0.5762
23424SOL    HW171713   3.555   6.415   1.177 -0.5928 -0.3383  0.6609
23424SOL    HW271714   3.614   6.536   1.106  0.4498 -0.6881  0.9087
23425SOL     OW71715   4.918   0.588   0.440  0.5329 -0.4551 -0.2817
23425SOL    HW171716   4.982   0.627   0.500 -0.1710 -0.0466  0.2057
23425SOL    HW271717   4.970   0.567   0.362  0.9599  1.4032 -0.5482
23426SOL     OW71718   2.014   5.869   5.881 -0.0577  0.2170  0.3308
23426SOL    HW171719   2.078   5.916   5.935  1.0068 -0.0228 -0.6817
23426SOL    HW271720   1.929   5.907   5.905  0.5903  1.3711  0.8573
23427SOL     OW71721   3.793   7.291   4.221  0.4503 -0.0518  0.0198
23427SOL    HW171722   3.746   7.344   4.285  1.1753  0.1461  0.3998
23427SOL    HW271723   3.885   7.309   4.238  0.6766 -0.6420 -0.5347
23428SOL     OW71724   6.360   6.378   1.030  0.0679 -0.2635 -0.6656
23428SOL    HW171725   6.447   6.401   0.999 -0.3170  1.1701 -0.7796
23428SOL    HW271726   6.338   6.447   1.093 -0.7331 -0.9461 -0.1752
23429SOL     OW71727   4.609   0.738  11.077 -0.3911 -0.0608  0.2821
23429SOL    HW171728   4.550   0.687  11.022  0.7445  0.3826 -1.4186
23429SOL    HW271729   4.679   0.676  11.101 -1.0762 -0.3642  1.6255
23430SOL     OW71730   4.941   4.629   1.882  0.3368  0.3577 -0.1247
23430SOL    HW171731   4.874   4.560   1.880 -0.3585  1.0049  0.0555
23430SOL    HW271732   5.021   4.586   1.853 -0.0880 -0.5199 -0.0403
23431SOL     OW71733   7.072   2.835  12.155 -0.1303 -0.1938  0.1851
23431SOL    HW171734   7.013   2.780  12.207  0.7193 -0.5403  0.8188
23431SOL    HW271735   7.157   2.825  12.198  0.7712 -1.0828 -1.7124
23432SOL     OW71736   4.502   5.200  10.214 -0.0894  0.3252 -0.2685
23432SOL    HW171737   4.579   5.226  10.164 -0.5700  0.9510 -0.6994
23432SOL    HW271738   4.498   5.105  10.204  0.9785  0.2138  0.2849
23433SOL     OW71739   5.020   7.697   1.778  0.5037  0.6231 -0.1585
23433SOL    HW171740   4.941   7.670   1.826  1.3735  0.8366  1.4558
23433SOL    HW271741   4.997   7.782   1.739 -0.1769  0.5059 -0.0248
23434SOL     OW71742   4.492   2.811  11.168  0.0973 -0.0554  0.0820
23434SOL    HW171743   4.571   2.764  11.197  0.1300 -1.3402 -1.9052
23434SOL    HW271744   4.437   2.743  11.128 -3.1542  0.3199  3.3510
23435SOL     OW71745   7.972   1.410   7.043 -0.2864  0.3763  0.0058
23435SOL    HW171746   7.975   1.325   7.001  2.0216 -0.7618  2.1582
23435SOL    HW271747   7.916   1.398   7.119 -1.5688  1.4049 -0.7287
23436SOL     OW71748   3.499   2.029  10.841  0.2151  0.4145  0.0635
23436SOL    HW171749   3.586   2.051  10.806  0.8838 -1.2204  0.5965
23436SOL    HW271750   3.510   2.032  10.936 -0.6955  1.5194  0.1530
23437SOL     OW71751   4.404   0.526  12.145  0.0663  0.0520 -0.2599
23437SOL    HW171752   4.490   0.563  12.128  0.8093 -1.4643  0.1018
23437SOL    HW271753   4.345   0.602  12.145  1.6993  1.4228  1.5883
23438SOL     OW71754   6.436   4.482  10.625  0.1103  0.0808 -0.6259
23438SOL    HW171755   6.433   4.387  10.623  0.0527  0.0785 -0.4175
23438SOL    HW271756   6.401   4.506  10.711  1.5014  0.2289 -0.0682
23439SOL     OW71757   7.750   4.028   6.426 -0.1405 -0.0812  0.1044
23439SOL    HW171758   7.743   4.042   6.520 -0.2952 -2.9646  0.6046
23439SOL    HW271759   7.812   3.955   6.417  0.7589  0.8816 -2.1140
23440SOL     OW71760   5.050   2.052   9.068 -0.3357  0.1853  0.0343
23440SOL    HW171761   5.014   2.023   8.984 -0.2720 -0.2243  0.1422
23440SOL    HW271762   5.011   1.993   9.132 -0.4261  0.5334  0.2977
23441SOL     OW71763   4.803   4.193   3.934  0.0143 -0.2079  0.2074
23441SOL    HW171764   4.714   4.208   3.965 -0.0727  0.5986 -0.3754
23441SOL    HW271765   4.858   4.207   4.011 -0.3213 -0.0475  0.4235
23442SOL     OW71766   1.241   3.367  11.836 -0.1274 -0.6660  0.3697
23442SOL    HW171767   1.229   3.312  11.759  1.0320  0.3969 -0.6215
23442SOL    HW271768   1.325   3.410  11.821 -0.7791  1.0126  1.3131
23443SOL     OW71769   5.761   3.700   1.718 -0.1002  0.2031 -0.1961
23443SOL    HW171770   5.752   3.790   1.685  1.8896  0.3165 -0.5629
23443SOL    HW271771   5.763   3.647   1.638  1.0751  0.1029 -0.1177
23444SOL     OW71772   2.936   7.772   8.619 -0.3235  0.1664  0.4318
23444SOL    HW171773   2.921   7.827   8.542  0.1661 -1.4053 -0.8454
23444SOL    HW271774   3.021   7.730   8.603  1.0058  1.6283  2.9983
23445SOL     OW71775   6.251   7.562   0.923  0.5008  0.3321  0.2767
23445SOL    HW171776   6.282   7.474   0.945  0.3410  0.1572 -0.1900
23445SOL    HW271777   6.314   7.620   0.965 -0.0011  0.0191  1.5129
23446SOL     OW71778   3.558   3.143   7.566 -0.1391  0.4166 -0.3860
23446SOL    HW171779   3.601   3.149   7.652  1.0651 -0.3972 -0.9046
23446SOL    HW271780   3.465   3.151   7.585  0.0816 -0.1280  1.0441
23447SOL     OW71781   1.628   1.921   2.465 -0.2710 -0.4550 -0.2728
23447SOL    HW171782   1.574   1.877   2.531 -0.2765  0.5579  0.4099
23447SOL    HW271783   1.695   1.967   2.515 -0.2825  0.3387 -0.9734
23448SOL     OW71784   5.221   6.178   8.837  0.3785  0.2272  0.7016
23448SOL    HW171785   5.277   6.149   8.909  1.1632  1.4631  0.6213
23448SOL    HW271786   5.269   6.251   8.798 -0.6800  0.4506 -0.2210
23449SOL     OW71787   5.833   7.783   1.031  0.7627 -0.3128 -0.3607
23449SOL    HW171788   5.790   7.706   0.994  1.3155 -0.1052 -1.4796
23449SOL    HW271789   5.914   7.749   1.070 -0.3170 -0.6970  1.7052
23450SOL     OW71790   0.631   1.399   6.435 -0.1790 -0.9523 -0.2620
23450SOL    HW171791   0.583   1.460   6.490  0.0669 -0.3542 -0.7017
23450SOL    HW271792   0.715   1.387   6.479 -0.3818 -1.3004  0.0379
23451SOL     OW71793   4.485   6.152   5.175 -0.2900  0.2407  0.4252
23451SOL    HW171794   4.513   6.242   5.159  0.1525 -0.1240 -0.9826
23451SOL    HW271795   4.566   6.105   5.195 -0.1191 -0.3837 -1.5553
23452SOL     OW71796   7.802   2.714   1.883 -0.6653 -0.1146 -0.4450
23452SOL    HW171797   7.850   2.664   1.817  0.7799  0.2968  0.2499
23452SOL    HW271798   7.741   2.768   1.832 -1.3386 -1.5812 -1.2730
23453SOL     OW71799   6.965   6.582   2.975  0.3772 -0.4898  0.8470
23453SOL    HW171800   7.046   6.535   2.954  2.6529  2.7056  1.6677
23453SOL    HW271801   6.935   6.543   3.057  2.2034 -0.4990  1.5574
23454SOL     OW71802   5.862   2.349   5.222 -0.5474 -0.2232 -0.1833
23454SOL    HW171803   5.843   2.401   5.300  1.6076 -2.4967  2.0137
23454SOL    HW271804   5.954   2.369   5.202 -0.6818 -0.6865 -1.3516
23455SOL     OW71805   6.679   5.938   7.504  0.4490 -0.0582 -0.2107
23455SOL    HW171806   6.720   5.853   7.511 -1.2074 -0.9184 -0.4146
23455SOL    HW271807   6.669   5.953   7.410  0.5678  0.2746 -0.1724
23456SOL     OW71808   1.750   7.011  11.346 -0.2942  0.0597  0.1197
23456SOL    HW171809   1.846   7.013  11.345 -0.1261 -2.1213  2.5470
23456SOL    HW271810   1.727   6.933  11.297 -0.7998  0.2107  0.1107
23457SOL     OW71811   5.906   5.109   7.415 -0.0564 -0.5179 -0.3723
23457SOL    HW171812   5.862   5.083   7.496  0.4025  0.1532  0.0997
23457SOL    HW271813   5.848   5.078   7.346  0.4513 -2.8296  0.1366
23458SOL     OW71814   6.692   2.916   5.197 -0.0751  0.1425  0.4503
23458SOL    HW171815   6.619   2.976   5.182 -1.6601 -1.7486  0.0458
23458SOL    HW271816   6.692   2.901   5.291 -0.3600 -0.0058  0.4290
23459SOL     OW71817   6.064   3.694   7.977 -0.4672  0.5817 -0.1566
23459SOL    HW171818   5.980   3.703   7.931  0.2959  0.7186 -1.5741
23459SOL    HW271819   6.045   3.636   8.051 -1.7157  0.3101 -0.6666
23460SOL     OW71820   1.327   0.295   4.192  0.1398 -0.1667  0.1991
23460SOL    HW171821   1.257   0.342   4.149 -0.2062  0.2562  1.1955
23460SOL    HW271822   1.337   0.338   4.277  1.3383 -0.4666  0.2322
23461SOL     OW71823   1.825   5.662   7.125  0.0246  0.0971  0.3724
23461SOL    HW171824   1.849   5.588   7.181 -0.8136 -2.2125 -2.1002
23461SOL    HW271825   1.730   5.654   7.115  0.1933  0.0795 -1.7198
23462SOL     OW71826   5.096   1.915  12.186  0.0380 -0.0002 -0.1547
23462SOL    HW171827   5.029   1.866  12.137  1.0877 -0.6264 -1.0026
23462SOL    HW271828   5.179   1.886  12.149  0.7646  1.2805  0.3995
23463SOL     OW71829   7.334   5.487   7.434  0.0260 -0.8764 -0.0103
23463SOL    HW171830   7.318   5.432   7.511  0.1262 -0.6844  0.1487
23463SOL    HW271831   7.423   5.521   7.447 -0.7632  0.9756  0.9374
23464SOL     OW71832   2.023   7.479   8.226 -0.8068 -0.0296 -0.0123
23464SOL    HW171833   1.942   7.462   8.273 -0.5689  3.3833  2.0092
23464SOL    HW271834   1.996   7.501   8.137 -2.2087  1.5236  0.7477
23465SOL     OW71835   3.071   3.207   8.467 -0.6827 -0.4648 -0.1744
23465SOL    HW171836   3.036   3.178   8.383  0.9376  1.7683 -1.7311
23465SOL    HW271837   3.131   3.137   8.493 -0.1110 -0.5703 -1.6444
23466SOL     OW71838   7.079   4.769  11.489  0.2472 -0.2445  0.9410
23466SOL    HW171839   7.054   4.686  11.529 -0.5057 -0.3081  0.3423
23466SOL    HW271840   7.090   4.828  11.564  1.6014 -1.0753  1.4323
23467SOL     OW71841   7.964   7.681   3.774  0.3421  0.2784  0.2626
23467SOL    HW171842   7.877   7.654   3.804 -0.2367  1.3979 -0.3587
23467SOL    HW271843   8.002   7.728   3.848  0.5457 -0.4380  0.6275
23468SOL     OW71844   2.913   1.308   7.496  0.4178  0.1258  0.1731
23468SOL    HW171845   2.836   1.353   7.463  1.9107  2.7749 -0.0029
23468SOL    HW271846   2.980   1.324   7.429  1.1163 -2.3188  0.1831
23469SOL     OW71847   7.124   1.225   3.552 -0.1898  0.1959  0.1202
23469SOL    HW171848   7.065   1.154   3.575  0.0713 -0.8596 -2.1551
23469SOL    HW271849   7.200   1.182   3.511  1.1998  1.6440  1.0318
23470SOL     OW71850   4.370   7.193  11.439 -0.0897 -0.2276  0.4082
23470SOL    HW171851   4.313   7.117  11.453  1.1053 -1.0819  0.8205
23470SOL    HW271852   4.312   7.261  11.406 -1.7218 -0.4246  2.6948
23471SOL     OW71853   1.915   1.182   0.883  0.3932 -0.2648  0.3756
23471SOL    HW171854   1.919   1.259   0.826 -0.0780  0.3965  1.2135
23471SOL    HW271855   2.006   1.165   0.907  0.5408 -0.2309 -0.1506
23472SOL     OW71856   0.319   5.963  10.239 -0.2736 -0.1662  0.4096
23472SOL    HW171857   0.300   5.874  10.210 -2.0110  0.6052 -0.9475
23472SOL    HW271858   0.234   6.005  10.249  0.5214  1.6348  0.0878
23473SOL     OW71859   2.030   4.219   9.301 -0.4993 -0.5603  0.1174
23473SOL    HW171860   1.956   4.279   9.298  0.3585  0.5012 -1.6802
23473SOL    HW271861   2.049   4.198   9.210  2.0224  0.0563  0.4009
23474SOL     OW71862   5.428   6.599   1.447  0.1570  0.2528  0.0257
23474SOL    HW171863   5.427   6.526   1.509  0.9390 -3.5667 -3.9210
23474SOL    HW271864   5.520   6.609   1.423 -0.2173  0.8970 -1.2188
23475SOL     OW71865   4.020   3.357   2.405  0.3055  0.5929  0.2933
23475SOL    HW171866   4.041   3.305   2.483  0.0008  0.2233  0.1374
23475SOL    HW271867   3.986   3.440   2.440  0.5506  0.5859  0.5511
23476SOL     OW71868   2.345   0.936   5.883  0.0595  0.5427 -0.1367
23476SOL    HW171869   2.285   0.862   5.884  0.6862  0.0004  1.6563
23476SOL    HW271870   2.303   1.002   5.828 -1.5002 -0.3558 -0.0553
23477SOL     OW71871   0.016   4.245   4.559  0.6392  0.1655  0.4770
23477SOL    HW171872   0.074   4.312   4.594  0.0901  0.1765  1.3813
23477SOL    HW271873   0.042   4.164   4.604 -1.5585  0.5839  2.7136
23478SOL     OW71874   6.076   5.169  12.114 -0.5795  0.8434  0.1740
23478SOL    HW171875   6.058   5.093  12.059 -1.1105  2.1504 -1.5313
23478SOL    HW271876   6.169   5.163  12.135 -0.6609 -0.3618  0.2110
23479SOL     OW71877   1.880   3.324   6.689  0.4177  0.0532 -0.7945
23479SOL    HW171878   1.844   3.407   6.722 -0.1844 -0.3306 -0.4772
23479SOL    HW271879   1.929   3.288   6.763 -2.2655 -1.6038  0.3246
23480SOL     OW71880   2.252   1.279   4.355  0.3305  0.6954 -0.2114
23480SOL    HW171881   2.165   1.263   4.319  0.0461 -0.5795  0.9734
23480SOL    HW271882   2.299   1.197   4.344  1.0266  1.0397  0.1267
23481SOL     OW71883   1.847   3.701   7.046  0.0671  0.2708 -0.3590
23481SOL    HW171884   1.866   3.755   7.122 -2.0970  2.8252 -1.4371
23481SOL    HW271885   1.918   3.637   7.042  0.9791  0.9307  2.9394
23482SOL     OW71886   4.891   7.580  10.735 -0.1591 -0.5510 -0.0474
23482SOL    HW171887   4.900   7.493  10.697 -2.1710 -0.7643 -0.1572
23482SOL    HW271888   4.826   7.569  10.804  0.8174  0.5470  1.0762
23483SOL     OW71889   5.294   4.016  11.757  0.1866 -0.2548  0.1145
23483SOL    HW171890   5.295   3.940  11.815 -1.4995  1.3957  2.5253
23483SOL    HW271891   5.226   4.073  11.794  2.5223  3.2294 -0.4579
23484SOL     OW71892   0.220   1.814   4.677 -0.3476  0.1772 -0.2057
23484SOL    HW171893   0.164   1.739   4.698  0.2284 -0.6883 -1.6428
23484SOL    HW271894   0.170   1.864   4.613 -0.5123  0.7634  0.3713
23485SOL     OW71895   1.678   6.824   4.713  0.4104  0.0316  0.5197
23485SOL    HW171896   1.614   6.761   4.680  0.7990 -0.9699  1.6084
23485SOL    HW271897   1.626   6.889   4.761  0.0432  0.3248 -0.2692
23486SOL     OW71898   0.871   5.803   6.877  0.1504  0.3420 -0.5184
23486SOL    HW171899   0.804   5.868   6.900 -0.3311 -0.2381 -0.2711
23486SOL    HW271900   0.883   5.752   6.956 -0.1512 -0.4718 -0.9881
23487SOL     OW71901   7.643   2.381   7.721  0.0835  0.4565 -0.2196
23487SOL    HW171902   7.549   2.380   7.704  0.1916  0.1172 -0.8316
23487SOL    HW271903   7.680   2.432   7.649  0.4022  0.3171 -0.1555
23488SOL     OW71904   5.035   4.128  11.822 -0.1015  0.6198  0.9321
23488SOL    HW171905   5.047   4.066  11.895  1.4744  1.4311  1.3948
23488SOL    HW271906   5.003   4.208  11.864  0.2410  0.8983  0.6628
23489SOL     OW71907   6.056   2.016   7.007 -0.3259  0.4763  0.1147
23489SOL    HW171908   6.089   2.053   6.925  0.2734 -0.1850  0.0464
23489SOL    HW271909   5.967   1.986   6.987  1.1680 -3.5686 -1.5765
23490SOL     OW71910   6.937   7.770  12.350 -0.0807 -0.0552  0.1028
23490SOL    HW171911   7.012   7.809  12.395  1.6153 -0.4801 -2.2297
23490SOL    HW271912   6.907   7.838  12.290 -0.9863 -0.2396  0.3286
23491SOL     OW71913   0.541   2.644   3.375  0.8048 -0.0739 -0.0444
23491SOL    HW171914   0.465   2.696   3.403  2.2720  2.6784 -0.7836
23491SOL    HW271915   0.592   2.630   3.454  2.1317  2.8134 -0.2557
23492SOL     OW71916   5.187   5.716   3.593  0.0079  0.2268 -0.0487
23492SOL    HW171917   5.152   5.706   3.681 -1.8775  1.2407 -0.6389
23492SOL    HW271918   5.124   5.672   3.536 -0.5239  2.2607 -1.1594
23493SOL     OW71919   7.525   2.471  12.121  0.5502  0.6501 -0.4804
23493SOL    HW171920   7.481   2.413  12.058  2.8269 -0.1399 -1.4493
23493SOL    HW271921   7.459   2.489  12.188 -1.1569 -0.5837 -1.7596
23494SOL     OW71922   5.533   2.415   5.582 -0.3342 -0.3782  0.1571
23494SOL    HW171923   5.444   2.393   5.554 -1.2659  0.9825  1.8342
23494SOL    HW271924   5.522   2.458   5.667  1.9826 -0.5878  0.6457
23495SOL     OW71925   1.261   7.929   5.418  0.2193  0.3524  0.7295
23495SOL    HW171926   1.243   7.994   5.486 -0.0586  0.6292  0.3907
23495SOL    HW271927   1.346   7.954   5.382 -0.9979  2.0788 -1.1636
23496SOL     OW71928   0.678   6.426   9.474  0.3512  0.3914 -0.2327
23496SOL    HW171929   0.698   6.440   9.567  0.0803 -1.4712  0.1505
23496SOL    HW271930   0.598   6.476   9.459  1.0970  1.7538  0.1825
23497SOL     OW71931   1.784   1.802   6.127  0.4081  0.8601  0.5118
23497SOL    HW171932   1.740   1.734   6.178  0.5853  0.6230  0.3531
23497SOL    HW271933   1.848   1.840   6.187  2.0913 -0.8250 -0.0913
23498SOL     OW71934   2.155   0.590  11.949  1.0018  0.0193  0.5620
23498SOL    HW171935   2.193   0.562  11.866  1.5318  0.6925  0.5694
23498SOL    HW271936   2.071   0.629  11.925 -1.1733 -4.0228  0.8001
23499SOL     OW71937   7.009   1.567  12.045  0.2511 -0.4492 -0.3069
23499SOL    HW171938   7.080   1.558  12.109 -0.3374 -2.4035  0.1376
23499SOL    HW271939   7.053   1.566  11.960  0.8487 -0.4313 -0.0042
23500SOL     OW71940   0.234   1.874   8.797 -0.1793 -0.0508 -0.9640
23500SOL    HW171941   0.194   1.907   8.716 -0.3227 -0.1610 -0.9389
23500SOL    HW271942   0.311   1.928   8.809 -0.1403 -0.0521 -1.1922
23501SOL     OW71943   4.101   0.106   7.004 -0.4794  0.3717 -0.4097
23501SOL    HW171944   4.082   0.188   7.048 -2.4958  0.2906 -1.0136
23501SOL    HW271945   4.022   0.088   6.952  0.7893 -0.8085 -2.0448
23502SOL     OW71946   6.133   0.753   7.115  0.6794  0.8755  0.2629
23502SOL    HW171947   6.121   0.744   7.210  0.6453  1.2220  0.2942
23502SOL    HW271948   6.045   0.762   7.080  0.7180  1.2060  0.2493
23503SOL     OW71949   0.622   2.628  11.928  0.5051 -0.1027  0.3674
23503SOL    HW171950   0.566   2.657  11.855 -0.8350 -1.9223  0.6033
23503SOL    HW271951   0.574   2.555  11.967  2.9746 -1.6173  0.7339
23504SOL     OW71952   6.493   4.749   6.556 -0.1946 -0.0386 -0.0090
23504SOL    HW171953   6.571   4.802   6.541  0.1847 -0.7308 -0.5599
23504SOL    HW271954   6.505   4.712   6.643  0.6036 -0.9641 -0.4923
23505SOL     OW71955   4.386   1.893   3.413  0.0805 -0.6045 -0.1175
23505SOL    HW171956   4.445   1.825   3.448  0.0856  0.0046  1.1359
23505SOL    HW271957   4.327   1.846   3.355  0.1112 -1.6874  0.6921
23506SOL     OW71958   2.298   7.944   4.664 -0.4653 -0.1011 -0.2437
23506SOL    HW171959   2.241   8.021   4.672  0.0515  0.2429  0.1892
23506SOL    HW271960   2.370   7.973   4.609 -0.6253 -0.4930 -0.6654
23507SOL     OW71961   2.641   6.489   4.727  0.0603 -0.0261 -0.2823
23507SOL    HW171962   2.625   6.396   4.744  0.7913 -0.5445 -2.1955
23507SOL    HW271963   2.563   6.519   4.681 -0.2345  0.3603  0.4547
23508SOL     OW71964   4.744   6.628   5.584  0.4224  0.1246  0.3834
23508SOL    HW171965   4.810   6.664   5.524 -1.4313 -0.3980 -2.1112
23508SOL    HW271966   4.711   6.705   5.631  2.0527  0.5207  0.9811
23509SOL     OW71967   2.214   5.558   0.741  0.0317 -0.0235  0.1450
23509SOL    HW171968   2.201   5.466   0.717 -3.3503  0.5086 -0.5523
23509SOL    HW271969   2.179   5.564   0.830 -0.3379  0.7152 -0.0479
23510SOL     OW71970   6.069   6.269   5.891  0.1631  0.2042  0.2743
23510SOL    HW171971   6.152   6.317   5.898 -0.3843  1.1361  0.4399
23510SOL    HW271972   6.022   6.311   5.819  0.2417 -0.9775 -0.5046
23511SOL     OW71973   4.061   4.790   0.578 -0.5941  0.1583  0.1083
23511SOL    HW171974   3.968   4.787   0.557 -0.7772 -0.8743  0.9873
23511SOL    HW271975   4.075   4.878   0.613 -0.9890  0.6978 -1.0500
23512SOL     OW71976   1.924   2.064   3.086 -0.0972  0.0019  0.1103
23512SOL    HW171977   1.918   1.977   3.125 -1.0137  0.1882  0.4067
23512SOL    HW271978   1.958   2.120   3.155  0.8550 -0.1828 -0.1949
23513SOL     OW71979   3.325   6.657   0.705 -0.0005  0.0624  0.4424
23513SOL    HW171980   3.364   6.703   0.780 -0.6426  2.6671 -0.6909
23513SOL    HW271981   3.369   6.694   0.629 -2.2700  0.6513 -0.6752
23514SOL     OW71982   2.344   0.894   1.959 -0.0246 -0.0505  0.1410
23514SOL    HW171983   2.432   0.860   1.979 -0.6421 -1.4828  0.5113
23514SOL    HW271984   2.327   0.865   1.870 -0.3163 -0.1917  0.2435
23515SOL     OW71985   7.980   2.819   4.237  0.1183 -0.0592  0.1760
23515SOL    HW171986   8.040   2.888   4.209  0.1891 -0.3285 -0.3460
23515SOL    HW271987   7.929   2.858   4.308  1.4800 -0.0851  1.2100
23516SOL     OW71988   6.124   7.397   5.428 -0.0758 -0.0921 -0.1113
23516SOL    HW171989   6.180   7.347   5.368 -0.1184  0.8222 -0.9425
23516SOL    HW271990   6.036   7.389   5.391  0.0668  1.4357 -0.8729
23517SOL     OW71991   6.114   2.818   3.805 -0.0527  0.2062  0.4116
23517SOL    HW171992   6.155   2.902   3.784 -1.0384  0.9259  1.2666
23517SOL    HW271993   6.041   2.840   3.862 -1.6167 -1.0454 -1.0073
23518SOL     OW71994   6.395   3.922  11.829 -0.4646 -0.0612 -0.4907
23518SOL    HW171995   6.319   3.869  11.805 -1.8303  1.0613  1.1071
23518SOL    HW271996   6.371   4.011  11.802 -0.4365  0.5720  1.4487
23519SOL     OW71997   7.671   5.319   5.140  0.1077  0.1199 -0.1091
23519SOL    HW171998   7.704   5.327   5.051 -0.3856  1.0384 -0.2309
23519SOL    HW271999   7.578   5.343   5.133  0.8823  4.5053  1.2409
23520SOL     OW72000   2.935   2.171   5.656  0.2115  0.0959  0.1846
23520SOL    HW172001   2.950   2.117   5.734  1.4003  0.1056 -0.0289
23520SOL    HW272002   3.014   2.160   5.603 -0.6761 -0.1093 -1.1512
23521SOL     OW72003   0.456   2.796   2.289 -0.2683 -0.4100 -0.1550
23521SOL    HW172004   0.511   2.861   2.334 -0.3784 -1.3797  1.4563
23521SOL    HW272005   0.518   2.740   2.243  0.2784 -2.0009  2.3170
23522SOL     OW72006   6.842   0.498   2.753  0.2959  0.5537 -0.2448
23522SOL    HW172007   6.779   0.571   2.748  0.7421  1.0101  0.5497
23522SOL    HW272008   6.790   0.421   2.730 -0.0598  1.1712 -1.6341
23523SOL     OW72009   0.157   4.252   3.957  0.1235 -0.4489 -0.2402
23523SOL    HW172010   0.177   4.169   3.913  0.6774  0.2562 -1.3812
23523SOL    HW272011   0.103   4.227   4.032  0.4544 -1.8565 -0.4339
23524SOL     OW72012   1.120   2.499   7.997  0.5078  0.3380 -0.1466
23524SOL    HW172013   1.206   2.466   7.972  1.5521  1.1332  2.1481
23524SOL    HW272014   1.132   2.535   8.084 -2.4429 -0.6991  0.8359
23525SOL     OW72015   2.225   3.736   9.030  0.0448  0.1178 -0.0201
23525SOL    HW172016   2.161   3.735   9.101  0.3332  0.6229  0.2536
23525SOL    HW272017   2.190   3.798   8.967 -0.9676 -1.4401 -1.0506
23526SOL     OW72018   5.798   0.965   4.036 -0.0697  0.7810  0.3171
23526SOL    HW172019   5.757   1.009   4.111  0.7228  2.4822 -0.1850
23526SOL    HW272020   5.883   0.936   4.070 -1.0485 -1.5080  0.9731
23527SOL     OW72021   6.882   0.348   9.682  0.6650  0.3470 -0.2931
23527SOL    HW172022   6.902   0.257   9.706 -0.9605  0.2117  0.7790
23527SOL    HW272023   6.883   0.348   9.586  2.6840 -0.2832 -0.3153
23528SOL     OW72024   6.317   3.022   6.252 -0.6213 -0.0564 -0.5564
23528SOL    HW172025   6.325   3.117   6.242  1.2344 -0.0835  0.2081
23528SOL    HW272026   6.225   3.007   6.274 -0.7680  1.6480  0.1196
23529SOL     OW72027   2.474   7.764   0.508  0.4103 -0.0524  0.0913
23529SOL    HW172028   2.459   7.835   0.445  2.4483 -0.7178 -1.2473
23529SOL    HW272029   2.490   7.809   0.591 -1.5566  0.8761  0.0444
23530SOL     OW72030   2.036   1.502   8.882  0.2395  0.7432 -0.2724
23530SOL    HW172031   2.126   1.531   8.875  0.4681  0.1949  0.2651
23530SOL    HW272032   2.037   1.437   8.953 -0.2258 -0.6649 -1.5106
23531SOL     OW72033   3.121   5.225   4.816  0.3975  0.4446  0.2920
23531SOL    HW172034   3.058   5.289   4.848 -0.2833  0.5346 -1.1324
23531SOL    HW272035   3.182   5.212   4.889 -0.5898  1.2290  1.2861
23532SOL     OW72036   6.591   6.295   0.573 -0.1886 -0.2518  0.2889
23532SOL    HW172037   6.627   6.228   0.514  0.7754  2.0325 -1.9244
23532SOL    HW272038   6.660   6.309   0.638  0.4725 -0.0017 -0.4498
23533SOL     OW72039   0.601   5.042  11.952 -0.2678  0.2475  0.0411
23533SOL    HW172040   0.686   5.031  11.995  0.3927  1.2074 -0.9652
23533SOL    HW272041   0.598   4.973  11.886  0.2235  0.8887 -0.6624
23534SOL     OW72042   4.673   0.828  10.546 -0.1819  0.2601 -0.1225
23534SOL    HW172043   4.589   0.827  10.501  0.5932  1.2683 -1.6852
23534SOL    HW272044   4.738   0.836  10.476  1.1799  0.2799  1.0845
23535SOL     OW72045   1.837   6.088   9.533  0.1822 -0.0540  0.3743
23535SOL    HW172046   1.905   6.109   9.597 -1.4837 -0.3878  2.3476
23535SOL    HW272047   1.836   5.992   9.528  1.1080 -0.0243 -1.1347
23536SOL     OW72048   2.450   4.466   2.618  0.0712 -0.1184  0.1244
23536SOL    HW172049   2.510   4.539   2.632 -0.4352  0.0345  1.8189
23536SOL    HW272050   2.494   4.410   2.555  0.4932  1.6156 -1.2035
23537SOL     OW72051   1.720   6.966   5.421 -0.6741 -0.3666 -0.2250
23537SOL    HW172052   1.721   6.958   5.516  0.3990  0.8465 -0.0984
23537SOL    HW272053   1.781   6.899   5.391  0.9356  0.8552  0.1502
23538SOL     OW72054   6.817   5.904   0.414 -0.2635 -0.0056  0.0101
23538SOL    HW172055   6.744   5.951   0.374 -0.8821 -1.2841 -0.4223
23538SOL    HW272056   6.887   5.910   0.349  0.3279  1.9134  0.7672
23539SOL     OW72057   3.471   5.480   7.154  0.3719 -0.3587  0.0098
23539SOL    HW172058   3.460   5.507   7.063 -1.1596  1.1952  0.6054
23539SOL    HW272059   3.557   5.515   7.179 -0.0639  0.9919 -0.2806
23540SOL     OW72060   6.304   3.681  10.950  0.5231 -0.0251 -0.1032
23540SOL    HW172061   6.223   3.724  10.923  0.8741  0.5641 -0.2477
23540SOL    HW272062   6.297   3.674  11.045  1.0235  1.5594  0.0724
23541SOL     OW72063   1.719   3.687   0.045  0.2115  0.4237 -0.2189
23541SOL    HW172064   1.626   3.682   0.069  0.2394  1.6184  0.2338
23541SOL    HW272065   1.756   3.749   0.108  1.6958 -1.2786  0.6657
23542SOL     OW72066   2.809   4.903   4.057 -0.1807  0.3368 -0.3641
23542SOL    HW172067   2.746   4.974   4.066  0.2255  0.5422  1.0524
23542SOL    HW272068   2.831   4.878   4.147  0.3231 -1.0129 -0.8309
23543SOL     OW72069   6.152   7.544   4.221 -0.3334 -0.0388  0.3516
23543SOL    HW172070   6.097   7.472   4.250 -1.5914  1.6333  2.4301
23543SOL    HW272071   6.231   7.537   4.275 -0.2066 -0.1769  0.1497
23544SOL     OW72072   2.881   1.857   8.897  0.4720 -0.1254  0.6560
23544SOL    HW172073   2.790   1.882   8.883  0.3013 -1.1265 -0.1275
23544SOL    HW272074   2.931   1.935   8.870 -0.1057  0.0429  0.0424
23545SOL     OW72075   3.949   0.723   1.476  0.2903 -0.3641  0.0809
23545SOL    HW172076   3.989   0.749   1.559  0.4758 -0.6517  0.0844
23545SOL    HW272077   3.926   0.805   1.433  1.5775 -0.1489 -0.2617
23546SOL     OW72078   2.826   4.456   6.994  0.0665 -0.2533 -0.1569
23546SOL    HW172079   2.855   4.449   6.903  0.7175  0.9487 -0.0523
23546SOL    HW272080   2.739   4.494   6.989 -0.3869 -1.2610 -0.3156
23547SOL     OW72081   3.259   1.006   2.674  0.3574  0.3827 -0.0059
23547SOL    HW172082   3.321   0.953   2.724  0.4342  0.7445  0.2903
23547SOL    HW272083   3.306   1.029   2.594  0.7324  0.9261  0.3616
23548SOL     OW72084   3.076   4.632   7.068 -0.0944 -0.6163 -0.0932
23548SOL    HW172085   3.051   4.574   7.141 -2.9618  0.8205  0.2331
23548SOL    HW272086   3.037   4.591   6.991 -0.0592 -0.3532 -0.2500
23549SOL     OW72087   5.298   3.259   2.329 -0.1206  0.1428 -0.4411
23549SOL    HW172088   5.203   3.260   2.342 -0.2033 -2.3632 -0.2946
23549SOL    HW272089   5.328   3.181   2.376  1.8569  0.1899 -1.4939
23550SOL     OW72090   0.199   0.900  10.476 -0.5582  0.0210  0.3945
23550SOL    HW172091   0.290   0.909  10.504 -0.4506 -0.4578  0.2209
23550SOL    HW272092   0.201   0.829  10.411 -0.6035  1.9099 -1.7753
23551SOL     OW72093   5.029   0.406   7.026  0.0712 -0.3048 -0.0446
23551SOL    HW172094   5.111   0.444   6.994 -1.0801  1.1106 -1.5201
23551SOL    HW272095   5.028   0.317   6.991  0.5678 -0.0198 -0.7953
23552SOL     OW72096   4.778   2.461   0.847  0.5692 -0.1062  0.1878
23552SOL    HW172097   4.731   2.409   0.913  0.8929 -0.9078 -0.1957
23552SOL    HW272098   4.711   2.512   0.803  0.1794 -0.5286  0.2874
23553SOL     OW72099   0.023   0.412   1.570 -0.0052 -0.1387  0.1336
23553SOL    HW172100   0.042   0.362   1.649 -2.3502  0.0597  0.9088
23553SOL    HW272101  -0.004   0.498   1.602 -2.5608 -0.5441 -0.7122
23554SOL     OW72102   7.405   3.406   2.260  0.0855 -0.1821  0.3426
23554SOL    HW172103   7.443   3.456   2.188  0.3497 -0.4493  0.2916
23554SOL    HW272104   7.349   3.468   2.306 -1.5064 -0.4362 -1.1429
23555SOL     OW72105   0.730   5.622   6.665 -1.0382  0.0636  0.0548
23555SOL    HW172106   0.655   5.673   6.636 -0.1473  0.3948 -1.8439
23555SOL    HW272107   0.806   5.672   6.635 -0.1297 -2.0354 -1.3550
23556SOL     OW72108   4.926   2.329   4.213 -0.1818  0.0065 -0.2766
23556SOL    HW172109   4.949   2.403   4.269  1.7286 -0.8968  0.2119
23556SOL    HW272110   4.831   2.338   4.199 -0.2795  1.6037  1.1118
23557SOL     OW72111   6.411   2.880   1.123 -0.1227 -0.4176  0.1352
23557SOL    HW172112   6.425   2.949   1.188 -0.1747 -0.3560  0.0810
23557SOL    HW272113   6.426   2.798   1.171  0.6037 -0.3479  0.0338
23558SOL     OW72114   0.954   5.239   6.877  0.1289  0.9135  0.1146
23558SOL    HW172115   0.947   5.324   6.835 -0.2746  0.7450 -0.1649
23558SOL    HW272116   0.875   5.231   6.930  0.1372  0.6950  0.0981
23559SOL     OW72117   1.546   4.652   6.525  0.2276 -0.0795  0.0664
23559SOL    HW172118   1.564   4.678   6.615  1.9299 -0.2538 -0.1891
23559SOL    HW272119   1.605   4.578   6.510  0.8253  0.6828 -1.5443
23560SOL     OW72120   2.516   1.840   2.915 -0.2382  0.0024 -0.5203
23560SOL    HW172121   2.456   1.837   2.990 -0.7928 -0.1646 -0.9628
23560SOL    HW272122   2.603   1.831   2.953 -0.5865 -1.3881  0.0026
23561SOL     OW72123   7.177   0.301   6.508  0.3188 -0.1772 -0.6104
23561SOL    HW172124   7.183   0.391   6.540  0.9521 -0.0914 -0.9421
23561SOL    HW272125   7.159   0.249   6.586  1.6507  0.0534 -0.1244
23562SOL     OW72126   4.371   3.923  11.224 -0.3329 -0.0097  0.3123
23562SOL    HW172127   4.293   3.964  11.261 -0.2327  2.1141 -1.5445
23562SOL    HW272128   4.341   3.886  11.141  0.8129  2.4161 -1.3331
23563SOL     OW72129   5.593   2.073  12.229  0.0187 -0.1378 -0.2465
23563SOL    HW172130   5.612   1.991  12.184  0.6034 -0.1051 -0.0619
23563SOL    HW272131   5.501   2.066  12.253 -0.0612 -0.5338 -0.6568
23564SOL     OW72132   3.653   0.786   4.054  0.6288  0.8135  0.8436
23564SOL    HW172133   3.746   0.766   4.047  0.7592  1.7262 -0.3101
23564SOL    HW272134   3.628   0.818   3.967 -0.9110 -0.0019  0.9364
23565SOL     OW72135   0.651   2.844   0.480  0.4990  0.9248 -0.0666
23565SOL    HW172136   0.715   2.892   0.533  1.6729 -1.1706  0.5007
23565SOL    HW272137   0.673   2.869   0.390  0.0313  2.6533  0.2528
23566SOL     OW72138   7.316   1.636   9.876  0.2247 -0.1372 -0.3192
23566SOL    HW172139   7.399   1.632   9.829 -0.0329 -0.8638 -0.7291
23566SOL    HW272140   7.316   1.559   9.933 -1.4275 -1.9065 -2.5155
23567SOL     OW72141   3.651   5.592   8.031 -0.6413 -0.1066 -0.4234
23567SOL    HW172142   3.592   5.664   8.054  2.6570  2.4800  0.5918
23567SOL    HW272143   3.662   5.544   8.113 -0.6247 -0.0476 -0.3906
23568SOL     OW72144   1.149   0.431   4.985 -0.1110 -0.3860 -0.1493
23568SOL    HW172145   1.082   0.447   4.919 -1.3784  0.9244  1.3788
23568SOL    HW272146   1.221   0.489   4.960 -0.0569 -0.8367 -1.0749
23569SOL     OW72147   0.507   3.797   4.730  0.5485  0.3553  0.2245
23569SOL    HW172148   0.468   3.774   4.646 -0.2664 -3.1981  1.3709
23569SOL    HW272149   0.436   3.783   4.793  1.3361  2.2529  1.5992
23570SOL     OW72150   5.801   5.954  11.290 -0.4679  0.3103 -0.2405
23570SOL    HW172151   5.823   5.881  11.347 -1.8371  0.6915  0.8306
23570SOL    HW272152   5.761   6.019  11.348  1.1078  2.1277 -1.0673
23571SOL     OW72153   0.134   6.130   1.063 -0.3451 -0.1156 -0.1725
23571SOL    HW172154   0.145   6.041   1.029 -1.4575  0.2604 -1.6325
23571SOL    HW272155   0.115   6.118   1.156  0.5231 -1.3259 -0.1262
23572SOL     OW72156   5.607   1.515   0.337 -0.0906  0.6953 -0.3585
23572SOL    HW172157   5.549   1.588   0.360 -1.8796 -0.3881 -1.2161
23572SOL    HW272158   5.678   1.556   0.288 -1.7867  1.7510 -2.0779
23573SOL     OW72159   1.326   4.491   7.563  0.1426  0.0681 -0.1232
23573SOL    HW172160   1.351   4.545   7.487  0.0868  1.0304  0.5292
23573SOL    HW272161   1.406   4.486   7.616  0.7390 -2.1318 -1.0823
23574SOL     OW72162   7.164   2.159   0.813  0.2561  0.2719  0.5501
23574SOL    HW172163   7.121   2.211   0.744  0.7636  0.2155  0.1894
23574SOL    HW272164   7.257   2.179   0.803  0.4616 -0.7306  0.3947
23575SOL     OW72165   5.234   2.307   7.328 -0.3138 -0.4774 -0.1914
23575SOL    HW172166   5.261   2.341   7.413  0.2923 -0.5957 -0.3316
23575SOL    HW272167   5.144   2.337   7.317 -0.0127  0.5064 -0.0162
23576SOL     OW72168   0.072   7.076   5.696  0.3839 -0.2331  0.2292
23576SOL    HW172169   0.026   7.155   5.725 -1.5018 -1.2671  0.2296
23576SOL    HW272170   0.028   7.004   5.741  0.9882 -1.4236 -0.9964
23577SOL     OW72171   6.251   3.202  10.178 -0.3910 -0.5040  0.0490
23577SOL    HW172172   6.285   3.129  10.126  0.8917  2.3213 -3.5724
23577SOL    HW272173   6.294   3.193  10.263  1.9788 -2.4114 -1.2073
23578SOL     OW72174   1.750   1.544   5.912  0.0749 -0.2006  0.1207
23578SOL    HW172175   1.842   1.543   5.884 -0.1308 -1.4001 -0.6120
23578SOL    HW272176   1.754   1.530   6.007  0.6446 -0.4911  0.0604
23579SOL     OW72177   5.842   3.568  10.914  0.4651 -0.2655  0.5358
23579SOL    HW172178   5.906   3.541  10.849 -0.7609 -0.3379 -0.6843
23579SOL    HW272179   5.791   3.637  10.872 -2.1632 -2.1791  0.2583
23580SOL     OW72180   6.958   4.373  10.216 -0.3583 -0.1010  0.2778
23580SOL    HW172181   7.002   4.457  10.203 -0.7798 -0.0390 -0.8634
23580SOL    HW272182   6.868   4.388  10.187 -0.6238 -0.7596  0.7312
23581SOL     OW72183   1.512   5.336   3.882  0.4373 -0.7333  0.4593
23581SOL    HW172184   1.523   5.306   3.972  1.8496 -1.2426  0.1473
23581SOL    HW272185   1.591   5.388   3.865 -0.6755  0.8947  0.0958
23582SOL     OW72186   5.637   7.690   7.350 -0.5277 -0.5445 -0.6749
23582SOL    HW172187   5.628   7.785   7.343  0.0479 -0.4859 -0.6209
23582SOL    HW272188   5.603   7.656   7.267 -0.2340 -0.2604 -0.9126
23583SOL     OW72189   0.596   1.509   1.480  0.2502  0.2898 -0.0273
23583SOL    HW172190   0.608   1.599   1.511  0.5141  0.9123 -1.7823
23583SOL    HW272191   0.541   1.519   1.402  0.8589 -1.0001 -0.6385
23584SOL     OW72192   0.709   7.520   2.571  0.4254  0.3347 -0.1144
23584SOL    HW172193   0.711   7.438   2.522  0.7902  0.0943  0.2862
23584SOL    HW272194   0.801   7.536   2.593  0.2989  0.5826  0.2448
23585SOL     OW72195   7.291   6.857   0.752  0.3271 -0.0789 -0.3371
23585SOL    HW172196   7.350   6.907   0.808  2.1170 -1.2140 -1.1022
23585SOL    HW272197   7.321   6.875   0.663  1.5376 -2.9441 -0.6442
23586SOL     OW72198   5.563   1.673   6.680  0.4296  0.4871  0.2249
23586SOL    HW172199   5.564   1.660   6.585  2.1956  1.0675  0.1380
23586SOL    HW272200   5.521   1.759   6.692  3.7457  2.3551 -0.3818
23587SOL     OW72201   3.402   3.193  10.949 -0.2976 -0.5519  0.4615
23587SOL    HW172202   3.465   3.134  10.908 -0.6941  0.6450 -2.0934
23587SOL    HW272203   3.414   3.276  10.902 -2.0481  0.4151  1.6396
23588SOL     OW72204   2.528   3.401   5.641  0.0239 -0.0743  0.2822
23588SOL    HW172205   2.534   3.359   5.555 -0.5855 -0.4213  0.4043
23588SOL    HW272206   2.514   3.494   5.622  0.5601 -0.0504  0.0086
23589SOL     OW72207   6.276   2.130   7.780 -0.0379  0.1488  0.1819
23589SOL    HW172208   6.297   2.210   7.828 -1.8326  0.2063  0.9624
23589SOL    HW272209   6.194   2.150   7.735  0.5403 -0.6053 -1.2581
23590SOL     OW72210   3.212   0.189   8.415  0.1218 -0.0211  0.1578
23590SOL    HW172211   3.209   0.182   8.319  0.1646 -0.7606  0.2033
23590SOL    HW272212   3.181   0.278   8.433 -0.7289 -0.1687 -0.4999
23591SOL     OW72213   2.910   0.156   9.451 -0.1550  0.6033  0.1597
23591SOL    HW172214   3.002   0.157   9.476  0.2101 -0.3645 -1.0314
23591SOL    HW272215   2.876   0.073   9.485 -0.6598  1.0582  0.7964
23592SOL     OW72216   5.518   1.413  10.407  0.0343  0.3672  0.0380
23592SOL    HW172217   5.490   1.505  10.406  0.4878  0.5011 -0.3600
23592SOL    HW272218   5.528   1.389  10.315  0.9369  0.2348  0.1619
23593SOL     OW72219   7.161   6.624   3.772 -0.4998  0.3070  0.6289
23593SOL    HW172220   7.252   6.614   3.743  0.1946  1.6427  2.2076
23593SOL    HW272221   7.112   6.563   3.717  1.3783 -0.6500 -0.0770
23594SOL     OW72222   0.581   1.022   8.056 -0.5482 -0.5086 -0.0429
23594SOL    HW172223   0.568   0.996   7.965 -1.2613  2.0157 -0.7606
23594SOL    HW272224   0.497   1.003   8.099 -0.7049 -0.3788 -0.2884
23595SOL     OW72225   6.657   6.475   5.546 -0.5237  0.5503  0.2390
23595SOL    HW172226   6.623   6.474   5.635 -1.5642  1.1485 -0.1325
23595SOL    HW272227   6.650   6.567   5.519 -0.1705  0.3823 -0.4502
23596SOL     OW72228   5.353   5.189   3.704 -0.5600  0.0956 -0.0116
23596SOL    HW172229   5.432   5.147   3.735  0.0659  0.8913 -0.4795
23596SOL    HW272230   5.288   5.119   3.699  0.4590 -0.8100 -0.8062
23597SOL     OW72231   6.173   4.310  11.420  0.2104  0.3164 -0.4190
23597SOL    HW172232   6.179   4.406  11.421  0.6156  0.2905 -0.0889
23597SOL    HW272233   6.216   4.284  11.339  1.5639  0.3293  0.2714
23598SOL     OW72234   6.162   6.998  10.802  0.4125  0.0818 -0.3458
23598SOL    HW172235   6.245   7.028  10.839  0.2869 -0.9519  0.8396
23598SOL    HW272236   6.187   6.932  10.738  0.4898 -0.5765  0.3585
23599SOL     OW72237   2.638   3.105   7.419  0.3583 -0.3200  0.4318
23599SOL    HW172238   2.629   3.039   7.350  2.2790 -0.8838  0.6598
23599SOL    HW272239   2.651   3.188   7.373 -2.2390  0.0073  0.1410
23600SOL     OW72240   7.402   7.186  10.708 -0.3787 -0.2185  0.0889
23600SOL    HW172241   7.493   7.157  10.710 -0.5997 -1.1076 -1.2073
23600SOL    HW272242   7.354   7.119  10.757 -0.4694 -0.3428 -0.1656
23601SOL     OW72243   0.847   2.910   1.454 -0.4676  0.2117 -0.0263
23601SOL    HW172244   0.927   2.866   1.482 -2.4871 -3.1158  1.1036
23601SOL    HW272245   0.840   2.891   1.360  0.1502  0.7767 -0.1979
23602SOL     OW72246   4.957   6.337   9.452 -0.2851 -0.2361 -0.0137
23602SOL    HW172247   4.928   6.425   9.431 -0.0757 -0.0185  0.5962
23602SOL    HW272248   5.049   6.348   9.478 -0.3759 -0.5726  0.4623
23603SOL     OW72249   0.820   4.789   0.938  0.0418 -0.0320 -0.0107
23603SOL    HW172250   0.793   4.698   0.954 -0.0871  0.2198  1.3031
23603SOL    HW272251   0.751   4.824   0.882 -0.7926 -0.2709  0.8447
23604SOL     OW72252   3.516   2.241  11.208 -0.0921 -0.1591  0.2587
23604SOL    HW172253   3.573   2.224  11.133  0.1633 -1.8222  0.7960
23604SOL    HW272254   3.570   2.291  11.268 -0.0018  0.3905 -0.2697
23605SOL     OW72255   0.723   7.791   5.260  0.3157  0.0821  0.4102
23605SOL    HW172256   0.718   7.778   5.165  0.3138 -0.8728  0.5313
23605SOL    HW272257   0.803   7.842   5.273  0.0930  0.5885 -0.1316
23606SOL     OW72258   6.451   2.110   6.244 -0.6053 -0.0981 -0.1462
23606SOL    HW172259   6.429   2.018   6.230 -2.7429  0.0689  1.4822
23606SOL    HW272260   6.366   2.154   6.245  0.3005  1.7320  0.2437
23607SOL     OW72261   7.269   4.606   8.857 -0.4010  0.0111 -0.2737
23607SOL    HW172262   7.186   4.612   8.905  0.3585 -1.1007  1.2648
23607SOL    HW272263   7.281   4.694   8.819 -0.6715  1.2441  2.2814
23608SOL     OW72264   4.018   4.219   9.059  0.0173 -0.4806 -0.4779
23608SOL    HW172265   3.976   4.292   9.014 -1.0707 -0.6087  0.3011
23608SOL    HW272266   4.109   4.221   9.029 -0.2869  0.4588 -1.3692
23609SOL     OW72267   1.797   4.741   0.123  0.3315 -0.2091 -0.4016
23609SOL    HW172268   1.827   4.654   0.149  1.5089  0.2721 -0.0822
23609SOL    HW272269   1.857   4.766   0.053 -0.7117 -0.1090 -1.2660
23610SOL     OW72270   3.028   3.645   3.102  0.4049 -0.9465 -0.5279
23610SOL    HW172271   3.038   3.660   3.196 -0.1887 -2.4380 -0.1869
23610SOL    HW272272   3.091   3.575   3.082  1.3711  0.1434 -1.5137
23611SOL     OW72273   7.928   4.348   4.282 -0.2658  0.0081 -0.2522
23611SOL    HW172274   7.944   4.327   4.374  0.7939  2.7067  0.2405
23611SOL    HW272275   7.940   4.264   4.236  1.5056 -0.9381  1.7734
23612SOL     OW72276   6.423   2.918   9.509  0.2816  0.4756  0.0505
23612SOL    HW172277   6.497   2.913   9.448 -0.8268 -1.5428 -1.2303
23612SOL    HW272278   6.346   2.913   9.453 -0.7768 -0.5703  1.5461
23613SOL     OW72279   5.406   7.559   3.760  0.7399  0.1123 -0.1225
23613SOL    HW172280   5.342   7.547   3.830  2.1893 -2.4506  0.9197
23613SOL    HW272281   5.379   7.497   3.692 -0.6158  2.5268 -1.9313
23614SOL     OW72282   7.426   5.104  12.255 -0.3267 -0.4115 -0.4130
23614SOL    HW172283   7.391   5.189  12.280  0.7553 -0.1041  0.0818
23614SOL    HW272284   7.382   5.042  12.314 -0.2889 -0.0656 -0.0161
23615SOL     OW72285   2.822   4.642  10.195 -0.1673 -0.0433  0.2865
23615SOL    HW172286   2.752   4.683  10.245  0.7195  0.0607  1.5116
23615SOL    HW272287   2.890   4.710  10.189 -0.1448 -0.1455 -0.8445
23616SOL     OW72288   6.811   5.684   5.877  0.1209 -0.2142 -0.0247
23616SOL    HW172289   6.735   5.720   5.832 -0.8239  1.4172  2.6326
23616SOL    HW272290   6.825   5.598   5.837 -2.6557 -0.2635 -1.0917
23617SOL     OW72291   0.879   3.867   9.734 -0.1863 -0.0361  0.1232
23617SOL    HW172292   0.899   3.954   9.769 -0.9887 -0.1323  0.8373
23617SOL    HW272293   0.879   3.879   9.639  0.4065  0.5848  0.1914
23618SOL     OW72294   6.305   2.329   9.626 -0.2184 -0.2866  0.1546
23618SOL    HW172295   6.359   2.356   9.552 -0.0359 -2.2059 -0.4475
23618SOL    HW272296   6.335   2.241   9.648 -0.5753  0.0442  2.2435
23619SOL     OW72297   6.868   5.161   8.730 -0.8925 -0.1746 -0.1854
23619SOL    HW172298   6.900   5.226   8.667 -0.9708  0.8657  0.8126
23619SOL    HW272299   6.774   5.154   8.713 -1.0464  0.6534  0.2780
23620SOL     OW72300   3.723   2.404   8.997 -0.2662  0.3306  0.2557
23620SOL    HW172301   3.664   2.384   8.925 -0.4085 -0.7409  0.6397
23620SOL    HW272302   3.667   2.445   9.063 -0.3368  0.4118  0.1451
23621SOL     OW72303   2.811   7.259   3.139  0.1936 -0.6842 -0.4803
23621SOL    HW172304   2.756   7.300   3.072 -0.8285 -0.0760  0.6949
23621SOL    HW272305   2.870   7.202   3.089  0.9391  1.3469 -2.0861
23622SOL     OW72306   0.321   6.330   1.713  0.6829  0.3709 -0.2707
23622SOL    HW172307   0.316   6.236   1.731  0.8684  0.6144  1.2434
23622SOL    HW272308   0.309   6.338   1.619  0.0992 -1.1270 -0.3459
23623SOL     OW72309   5.446   4.580   9.267  0.5426  0.0413 -0.1538
23623SOL    HW172310   5.473   4.600   9.178 -1.1965 -0.5039 -0.8520
23623SOL    HW272311   5.352   4.598   9.268  0.2031 -1.5387  1.0696
23624SOL     OW72312   1.743   0.856  10.669 -0.3084  0.3222  0.4908
23624SOL    HW172313   1.761   0.909  10.591  1.8462  0.6266  1.1154
23624SOL    HW272314   1.703   0.776  10.634 -1.6529  1.4508 -0.6667
23625SOL     OW72315   4.503   5.130   9.695  0.2741  0.2178  0.4635
23625SOL    HW172316   4.527   5.039   9.706  0.8343  0.5622  2.4413
23625SOL    HW272317   4.569   5.179   9.745  0.1919  1.7357 -0.8355
23626SOL     OW72318   2.991   2.121  10.295 -0.2973  0.0342 -0.4400
23626SOL    HW172319   2.911   2.089  10.337  0.2098  0.5489  0.9478
23626SOL    HW272320   3.010   2.204  10.338  0.6157  0.2506 -1.2310
23627SOL     OW72321   4.958   5.097   8.128  0.2569  0.3517 -0.4009
23627SOL    HW172322   5.007   5.175   8.149  1.0773 -0.0097 -0.9341
23627SOL    HW272323   4.897   5.086   8.201 -0.0170  1.5882 -0.4186
23628SOL     OW72324   3.687   0.795   3.286 -0.3967 -0.1604 -0.9086
23628SOL    HW172325   3.659   0.703   3.285  1.5848 -0.8121 -0.5682
23628SOL    HW272326   3.719   0.808   3.375  0.0112  0.6597 -1.1718
23629SOL     OW72327   6.597   1.680  12.190  0.0912  0.4509 -0.1512
23629SOL    HW172328   6.501   1.675  12.189  0.1332 -1.2875  0.9530
23629SOL    HW272329   6.622   1.657  12.279  1.5324  1.7178 -0.1845
23630SOL     OW72330   0.730   2.687   1.890 -0.4803  0.2789 -0.5978
23630SOL    HW172331   0.762   2.612   1.840  1.8239  2.2778 -2.3483
23630SOL    HW272332   0.670   2.732   1.830  0.7123  1.5827 -0.8544
23631SOL     OW72333   4.165   2.444   7.060 -0.4618  0.5771 -0.1623
23631SOL    HW172334   4.211   2.515   7.105 -0.0782 -1.0131  2.1503
23631SOL    HW272335   4.073   2.468   7.064 -0.3980  0.6880  1.1792
23632SOL     OW72336   6.428   1.460  10.930  0.0338 -0.8081 -0.0029
23632SOL    HW172337   6.455   1.548  10.957 -0.6729 -0.8789  0.9814
23632SOL    HW272338   6.349   1.474  10.878 -1.2206 -0.9506  1.7687
23633SOL     OW72339   4.379   1.701   2.209  0.6368 -0.0299 -0.3814
23633SOL    HW172340   4.326   1.728   2.283  0.8570 -1.8183  0.4936
23633SOL    HW272341   4.353   1.759   2.138  1.7462  3.0244  1.4993
23634SOL     OW72342   3.136   5.659   8.060 -0.0068  0.8104  0.1051
23634SOL    HW172343   3.129   5.749   8.090 -1.4573  0.1804  1.9045
23634SOL    HW272344   3.045   5.629   8.051  0.3973  0.0703 -2.3987
23635SOL     OW72345   1.010   2.152  10.966 -0.8869 -0.1767 -0.0561
23635SOL    HW172346   1.091   2.114  10.999  0.7155  1.9175 -1.2970
23635SOL    HW272347   0.995   2.107  10.882 -1.3515 -0.9541  0.4321
23636SOL     OW72348   3.851   0.473   2.305  0.4819  0.0179  0.0173
23636SOL    HW172349   3.762   0.506   2.291  0.4916  0.7987  1.5671
23636SOL    HW272350   3.862   0.403   2.241 -1.6430 -0.8379  0.5376
23637SOL     OW72351   1.612   1.557   9.922 -0.3281  0.3417  0.1944
23637SOL    HW172352   1.655   1.568  10.007  1.9480 -2.5600 -0.3940
23637SOL    HW272353   1.534   1.505   9.941  1.0941 -1.8484  0.4676
23638SOL     OW72354   3.594   6.355   6.302  0.5632 -0.0275 -0.1430
23638SOL    HW172355   3.517   6.407   6.325 -0.9956 -2.2347 -0.1073
23638SOL    HW272356   3.588   6.345   6.207  0.7805 -0.2485 -0.1335
23639SOL     OW72357   4.810   7.277  12.063 -0.4004 -0.4728 -0.6289
23639SOL    HW172358   4.756   7.204  12.032 -0.1369 -0.5279 -0.9734
23639SOL    HW272359   4.871   7.237  12.125 -0.6871 -0.4272 -0.3131
23640SOL     OW72360   5.958   1.693   6.036 -0.7786  0.4305 -0.3544
23640SOL    HW172361   5.967   1.777   5.990 -1.1345  0.8133  0.2626
23640SOL    HW272362   5.864   1.678   6.039 -0.6709 -0.8282 -1.9207
23641SOL     OW72363   3.572   4.221   4.127 -0.3381 -0.4329 -0.2607
23641SOL    HW172364   3.550   4.239   4.035 -2.8948 -1.1322  0.1327
23641SOL    HW272365   3.588   4.126   4.129  0.1797 -0.3459 -0.0430
23642SOL     OW72366   1.610   6.554   4.305  0.0544 -0.1403  0.3181
23642SOL    HW172367   1.657   6.470   4.312  0.9635  0.3822  0.7443
23642SOL    HW272368   1.552   6.555   4.381 -0.8839 -0.9143 -0.3584
23643SOL     OW72369   6.434   3.539   9.864 -0.3334 -0.4625  0.1053
23643SOL    HW172370   6.514   3.581   9.896 -1.6609  2.3026  0.0569
23643SOL    HW272371   6.466   3.462   9.815  2.2083  0.0181  0.8319
23644SOL     OW72372   4.430   1.163   7.668  0.5575 -0.0740  0.4908
23644SOL    HW172373   4.400   1.082   7.626  1.2069 -0.0628 -0.0134
23644SOL    HW272374   4.474   1.212   7.598  0.1250  0.7452  0.7760
23645SOL     OW72375   4.429   5.075   5.732 -0.1798 -0.4181  0.0710
23645SOL    HW172376   4.389   4.988   5.733  1.9906 -1.4647  0.7408
23645SOL    HW272377   4.493   5.071   5.661 -0.0706  0.6387  0.0984
23646SOL     OW72378   4.617   1.393  12.391  0.5663  0.4757 -0.2715
23646SOL    HW172379   4.691   1.334  12.375  0.4520  0.6732 -1.7370
23646SOL    HW272380   4.563   1.385  12.312  0.9489  3.0628 -0.8972
23647SOL     OW72381   5.371   2.420   9.643 -0.2372  0.0014 -0.5572
23647SOL    HW172382   5.357   2.496   9.585 -0.2741  0.9546  0.6584
23647SOL    HW272383   5.370   2.457   9.731  0.1091 -1.3795  0.0500
23648SOL     OW72384   2.348   5.911   8.769 -0.7512 -0.4311 -0.3428
23648SOL    HW172385   2.369   5.832   8.719 -1.4097 -0.3205 -0.8116
23648SOL    HW272386   2.354   5.883   8.861  0.2446 -0.6958 -0.4762
23649SOL     OW72387   0.701   0.642  10.493 -0.0463  0.0554 -0.4983
23649SOL    HW172388   0.742   0.725  10.515  2.8346 -1.3798  0.0769
23649SOL    HW272389   0.722   0.628  10.401 -0.2080 -0.1784 -0.5011
23650SOL     OW72390   5.713   3.395   2.384 -0.2437  0.1296  0.1807
23650SOL    HW172391   5.783   3.398   2.450 -1.8253 -0.4775  1.9728
23650SOL    HW272392   5.699   3.486   2.360  1.5951  0.2207 -0.7516
23651SOL     OW72393   2.553   5.732   6.837 -0.6781 -0.4544  0.3454
23651SOL    HW172394   2.528   5.713   6.747  1.4690 -0.2564 -0.3476
23651SOL    HW272395   2.511   5.816   6.857 -0.2606  0.0658 -0.8887
23652SOL     OW72396   0.257   0.706   6.121 -0.2161 -0.2067 -0.3650
23652SOL    HW172397   0.285   0.745   6.038  0.9154 -1.5318 -0.6548
23652SOL    HW272398   0.297   0.761   6.188  1.0478 -0.5976 -0.7574
23653SOL     OW72399   5.880   3.339   1.121 -0.5869  0.0937  0.1353
23653SOL    HW172400   5.852   3.430   1.128  0.2108  0.2777  1.2633
23653SOL    HW272401   5.866   3.303   1.209  0.6787 -0.3841  0.1627
23654SOL     OW72402   2.450   2.770   7.459 -0.1728 -0.3866 -0.1369
23654SOL    HW172403   2.536   2.759   7.499 -0.8527 -2.1320  0.9998
23654SOL    HW272404   2.461   2.740   7.369  0.6604  0.5590 -0.3666
23655SOL     OW72405   5.533   5.199   2.596  0.0726 -0.7174 -0.1792
23655SOL    HW172406   5.581   5.183   2.515  0.2588 -0.0336 -0.2022
23655SOL    HW272407   5.441   5.193   2.570  0.1316 -0.8348 -0.3699
23656SOL     OW72408   5.631   4.564   0.413  0.6756  0.0610 -0.1077
23656SOL    HW172409   5.624   4.589   0.321 -0.1723  0.2925  0.0118
23656SOL    HW272410   5.554   4.603   0.454  0.2353 -1.3051  0.4155
23657SOL     OW72411   4.937   5.850   2.649 -0.0505 -0.2027  0.2826
23657SOL    HW172412   5.003   5.785   2.628  0.3293  0.1408  0.4100
23657SOL    HW272413   4.882   5.855   2.570  0.8601  0.4701 -0.3220
23658SOL     OW72414   6.821   6.207   9.093 -0.1137  0.7672  0.2088
23658SOL    HW172415   6.910   6.199   9.058 -0.1540  0.9612  0.0645
23658SOL    HW272416   6.766   6.223   9.016 -0.3106  0.3726  0.2652
23659SOL     OW72417   7.425   6.852   4.879  0.1132  0.2892 -0.1628
23659SOL    HW172418   7.481   6.827   4.806 -0.6929 -0.2790 -0.6065
23659SOL    HW272419   7.341   6.810   4.860 -0.7695  1.8895 -0.0205
23660SOL     OW72420   6.040   1.361   4.547 -0.4294  0.4131  0.1106
23660SOL    HW172421   6.064   1.283   4.497  1.6909 -0.5950  2.5210
23660SOL    HW272422   6.090   1.432   4.506  1.2272 -0.3859  0.6762
23661SOL     OW72423   3.787   0.194   4.902 -0.4006  0.0190 -0.5639
23661SOL    HW172424   3.724   0.258   4.871 -1.6242 -0.9441 -0.1604
23661SOL    HW272425   3.804   0.219   4.993  1.9398  1.8774 -1.4155
23662SOL     OW72426   2.845   5.981   6.994 -0.0705 -0.0067 -0.0021
23662SOL    HW172427   2.804   5.964   7.078 -0.5731 -1.9725 -0.5850
23662SOL    HW272428   2.938   5.992   7.014 -0.3654  0.9054  0.9329
23663SOL     OW72429   4.896   3.171   8.482  0.3084  0.2207  0.3222
23663SOL    HW172430   4.810   3.197   8.517  0.1280 -0.1513  0.1546
23663SOL    HW272431   4.889   3.188   8.388  0.3980  0.1368  0.3009
23664SOL     OW72432   4.825   5.417   3.289 -0.0079 -0.3724  0.5407
23664SOL    HW172433   4.908   5.368   3.292 -0.3717 -1.1557 -0.9245
23664SOL    HW272434   4.839   5.483   3.221  0.5108  1.7135  2.5753
23665SOL     OW72435   4.242   2.107  11.713 -0.2942  0.0727 -0.2096
23665SOL    HW172436   4.280   2.186  11.676 -0.6811 -0.1066 -1.0262
23665SOL    HW272437   4.172   2.084  11.651  1.0700 -2.0038 -1.0627
23666SOL     OW72438   6.271   6.768   9.696 -0.0652 -0.0584  0.7481
23666SOL    HW172439   6.317   6.761   9.780  1.1106  2.3968  0.4022
23666SOL    HW272440   6.204   6.835   9.711 -0.2966 -0.0922 -0.0961
23667SOL     OW72441   2.217   5.656   1.188  0.1875 -0.0945 -0.5533
23667SOL    HW172442   2.193   5.569   1.157  0.1686 -0.5151  0.5702
23667SOL    HW272443   2.272   5.640   1.265 -0.5358  0.8748  0.2038
23668SOL     OW72444   2.486   2.297   4.070  0.1177  0.1135 -0.1638
23668SOL    HW172445   2.526   2.276   3.986  0.5216 -1.4916  0.3929
23668SOL    HW272446   2.519   2.385   4.091  2.1791 -0.5534 -0.4190
23669SOL     OW72447   5.911   1.473   6.680  0.0885  0.0451 -0.1774
23669SOL    HW172448   5.866   1.406   6.732  0.2112  1.0371  1.2675
23669SOL    HW272449   6.004   1.455   6.695  0.1608 -0.4691 -1.1514
23670SOL     OW72450   3.937   1.595   9.131  0.2905  0.1414  0.4831
23670SOL    HW172451   4.012   1.629   9.179  0.8716  0.1251 -0.4091
23670SOL    HW272452   3.948   1.627   9.042 -0.7779  0.1660  0.3411
23671SOL     OW72453   7.862   4.342   9.404 -0.3698  0.4773 -0.3789
23671SOL    HW172454   7.838   4.405   9.472  0.3379 -1.2056  1.5403
23671SOL    HW272455   7.782   4.292   9.388  0.0046 -0.6401  0.9941
23672SOL     OW72456   3.011   1.316  11.700 -0.0334 -0.8108  0.2858
23672SOL    HW172457   2.970   1.261  11.767 -0.1188 -1.4231 -0.2564
23672SOL    HW272458   2.939   1.364  11.661  0.0009 -0.5466  0.5417
23673SOL     OW72459   4.367   4.490  11.518  0.5687 -0.2357  0.2120
23673SOL    HW172460   4.316   4.551  11.572  1.0335  0.6263 -0.2904
23673SOL    HW272461   4.454   4.530  11.515  0.7149 -0.6186 -0.6337
23674SOL     OW72462   6.150   7.367   5.687 -0.2046 -0.3470 -0.0516
23674SOL    HW172463   6.135   7.374   5.593 -1.1306 -1.3843  0.0033
23674SOL    HW272464   6.132   7.455   5.721  3.9019  1.1794 -1.2623
23675SOL     OW72465   3.158   3.210  10.828  0.2621 -0.0885  0.1995
23675SOL    HW172466   3.101   3.238  10.899  0.1440 -0.7075  0.3521
23675SOL    HW272467   3.247   3.226  10.860  0.2805  4.0481 -1.2643
23676SOL     OW72468   4.870   1.417   7.967 -0.0547 -0.4680 -0.4564
23676SOL    HW172469   4.895   1.329   7.940 -0.0809 -0.1816 -1.4706
23676SOL    HW272470   4.797   1.440   7.909 -2.5891 -1.1619  2.1901
23677SOL     OW72471   0.774   1.218   7.785 -0.2416  0.2415  0.2367
23677SOL    HW172472   0.846   1.158   7.803 -1.4851 -0.6482  2.7832
23677SOL    HW272473   0.807   1.304   7.809  0.6565  0.1680 -0.7172
23678SOL     OW72474   1.848   6.783   3.723  0.0863 -0.2841 -1.0891
23678SOL    HW172475   1.877   6.810   3.810  0.3444  0.3958 -1.3862
23678SOL    HW272476   1.753   6.797   3.724  0.1223 -0.0511 -1.0004
23679SOL     OW72477   6.059   1.350   3.013  0.9762  0.4871 -0.3697
23679SOL    HW172478   5.979   1.358   2.960 -0.3212 -0.7531  1.2511
23679SOL    HW272479   6.027   1.347   3.104  2.8106 -0.6359  0.3037
23680SOL     OW72480   3.153   7.268  11.433 -0.4701 -0.3380  0.5823
23680SOL    HW172481   3.127   7.312  11.352 -1.7367 -1.1846  0.4996
23680SOL    HW272482   3.174   7.340  11.493  1.7614  0.2892 -0.8368
23681SOL     OW72483   7.450   1.275   9.885  0.0049 -0.3794 -0.0672
23681SOL    HW172484   7.481   1.198   9.836 -1.0177 -1.6212  1.1409
23681SOL    HW272485   7.375   1.306   9.835 -0.4388 -1.0381  0.1814
23682SOL     OW72486   5.807   4.277   2.310 -1.1775  0.6860 -0.0682
23682SOL    HW172487   5.841   4.210   2.251 -2.2795  2.0342 -2.3849
23682SOL    HW272488   5.713   4.276   2.295 -1.6782  0.3817  2.5498
23683SOL     OW72489   3.041   3.388   2.476 -0.2073  0.2656 -0.2853
23683SOL    HW172490   3.049   3.422   2.387  0.1417 -1.0936 -0.7911
23683SOL    HW272491   2.956   3.420   2.506  0.2035  1.7689 -0.6266
23684SOL     OW72492   1.108   2.857  10.865  0.3007 -0.9322  0.0725
23684SOL    HW172493   1.056   2.813  10.798  0.7734 -0.3928 -0.6749
23684SOL    HW272494   1.164   2.789  10.901 -0.7948 -1.4881  0.7836
23685SOL     OW72495   5.104   2.566   5.538  0.3987 -0.2354  0.1866
23685SOL    HW172496   5.193   2.588   5.564  0.6042 -0.6212 -0.1734
23685SOL    HW272497   5.063   2.650   5.520  0.4999 -0.0156  0.9464
23686SOL     OW72498   2.715   2.056   3.174 -0.4193  0.1312  0.3258
23686SOL    HW172499   2.774   2.116   3.129 -1.1418 -0.3524 -1.3583
23686SOL    HW272500   2.651   2.112   3.218 -0.4420  0.6111 -0.3095
23687SOL     OW72501   0.634   0.986   5.831 -0.4584 -0.1255 -0.4188
23687SOL    HW172502   0.658   0.958   5.919  1.6864  1.0674 -0.5462
23687SOL    HW272503   0.625   0.905   5.780  0.9193 -0.7319  0.2803
23688SOL     OW72504   5.765   2.968   7.893  0.0425  1.0557  0.6014
23688SOL    HW172505   5.674   2.970   7.923 -0.0330  0.8090  0.3882
23688SOL    HW272506   5.764   2.911   7.816  0.3914  0.9889  0.6448
23689SOL     OW72507   4.978   7.475  12.367  0.4112  0.3960 -0.3213
23689SOL    HW172508   5.055   7.484  12.423 -0.6577  0.2946  1.2451
23689SOL    HW272509   4.921   7.548  12.393 -0.6557 -0.4036 -0.3295
23690SOL     OW72510   1.736   7.931   0.169 -0.6251 -0.0434  0.7703
23690SOL    HW172511   1.810   7.984   0.139  1.0783 -2.3710  0.6142
23690SOL    HW272512   1.728   7.952   0.262  2.1560 -1.7377  1.5154
23691SOL     OW72513   5.438   6.767   0.836 -0.3955 -0.1249  0.0715
23691SOL    HW172514   5.410   6.763   0.744  0.7637  0.1337 -0.3051
23691SOL    HW272515   5.511   6.705   0.841  0.2307  0.6389  0.5656
23692SOL     OW72516   5.998   2.864  11.281 -0.6624  0.3157  0.4882
23692SOL    HW172517   5.922   2.811  11.260 -0.4348 -0.5702  1.7939
23692SOL    HW272518   6.055   2.856  11.204 -1.4513  0.2060 -0.0965
23693SOL     OW72519   2.591   3.628   5.433  0.3026  0.4761 -0.4351
23693SOL    HW172520   2.614   3.662   5.347  1.2751 -0.2292 -0.4676
23693SOL    HW272521   2.674   3.600   5.471 -0.2784 -0.4693  0.1872
23694SOL     OW72522   4.122   2.389   2.652 -0.0714 -0.3478  0.1058
23694SOL    HW172523   4.060   2.351   2.713  0.8157 -1.1159  0.5570
23694SOL    HW272524   4.161   2.463   2.699 -2.1406  1.5120 -0.9408
23695SOL     OW72525   2.680   2.044   9.291 -0.0645  0.3523  0.2539
23695SOL    HW172526   2.715   2.098   9.362  1.3596 -0.6158  0.3223
23695SOL    HW272527   2.758   2.007   9.248 -0.9739 -1.7271  0.2784
23696SOL     OW72528   3.005   6.367  11.819  0.2798  0.3420  0.0356
23696SOL    HW172529   2.972   6.420  11.747  0.6891 -1.9374 -1.9623
23696SOL    HW272530   3.079   6.417  11.854 -1.4472  2.6565  0.6183
23697SOL     OW72531   5.736   7.286  10.330  0.3020  0.0179 -0.0132
23697SOL    HW172532   5.666   7.261  10.391  0.7865 -0.9291  0.1679
23697SOL    HW272533   5.715   7.239  10.249 -0.8802  2.0127 -0.9473
23698SOL     OW72534   6.136   7.921   3.368  0.2288  0.3061  0.2357
23698SOL    HW172535   6.135   7.998   3.310 -0.6108  0.2118  0.1073
23698SOL    HW272536   6.208   7.937   3.428  1.1987  0.3543 -0.9095
23699SOL     OW72537   2.532   3.018  12.324  0.3341 -0.1431  0.3588
23699SOL    HW172538   2.564   3.033  12.413  0.8517 -4.6636  1.1462
23699SOL    HW272539   2.606   2.978  12.279 -0.7523 -0.3242 -1.3315
23700SOL     OW72540   7.289   6.148   4.920  0.1537  0.4601  0.0605
23700SOL    HW172541   7.311   6.061   4.954  0.5893  0.1280 -1.0573
23700SOL    HW272542   7.351   6.163   4.849 -0.7182  1.1646 -0.5692
23701SOL     OW72543   6.418   4.569   1.211 -0.0828  0.7746 -0.0103
23701SOL    HW172544   6.452   4.491   1.256  0.9962  0.7754 -0.7792
23701SOL    HW272545   6.324   4.555   1.208 -0.1349  0.5719  1.8390
23702SOL     OW72546   3.419   0.809   2.763 -0.1957 -0.6048  0.0275
23702SOL    HW172547   3.333   0.768   2.759 -0.0774 -0.8775  0.2022
23702SOL    HW272548   3.480   0.736   2.750  0.0506 -0.6620  1.3597
23703SOL     OW72549   3.036   4.151  12.086  0.3928 -0.0787 -0.0758
23703SOL    HW172550   2.999   4.079  12.034  0.3275 -0.5422  0.5942
23703SOL    HW272551   3.027   4.228  12.030 -0.7183 -0.3615 -0.3124
23704SOL     OW72552   2.467   1.002   6.779 -0.3505 -0.1441 -0.7278
23704SOL    HW172553   2.446   1.075   6.836  1.1548  0.6419 -1.1107
23704SOL    HW272554   2.387   0.950   6.775 -0.2385 -0.9064  3.0256
23705SOL     OW72555   2.695   6.177   0.673  0.1906 -0.4787  0.0912
23705SOL    HW172556   2.599   6.179   0.673  0.1952 -0.3085 -0.2345
23705SOL    HW272557   2.718   6.153   0.584  0.5240  2.2838 -0.6312
23706SOL     OW72558   2.928   0.647   9.263  0.0093 -0.1912  0.1845
23706SOL    HW172559   2.886   0.625   9.347 -0.0139  0.4432  0.3449
23706SOL    HW272560   2.943   0.562   9.221 -0.9270 -0.4613  0.3703
23707SOL     OW72561   6.639   2.748  11.937  0.5356  0.2313  0.2665
23707SOL    HW172562   6.718   2.800  11.921  0.2664  0.6548  0.3059
23707SOL    HW272563   6.594   2.794  12.008  0.7117 -0.5176  0.8777
23708SOL     OW72564   3.374   7.515   8.214 -1.0201  0.3818  0.2881
23708SOL    HW172565   3.374   7.531   8.120  1.0651  3.1241  0.6332
23708SOL    HW272566   3.406   7.597   8.252  3.5248 -2.2801  3.0057
23709SOL     OW72567   1.795   1.536   1.437 -0.2113  0.5515 -0.1759
23709SOL    HW172568   1.887   1.522   1.460 -0.3049 -0.9607 -0.5881
23709SOL    HW272569   1.746   1.485   1.503 -0.5374 -2.3837 -2.4527
23710SOL     OW72570   1.931   7.761   8.524  0.3462  0.3653  0.1919
23710SOL    HW172571   1.964   7.672   8.542 -1.9461 -0.6890 -0.4955
23710SOL    HW272572   1.956   7.811   8.602 -0.4685 -1.5269  1.7628
23711SOL     OW72573   4.758   5.060   1.481  0.1417 -0.2661 -0.4191
23711SOL    HW172574   4.847   5.026   1.473  0.0311 -0.7295  0.2320
23711SOL    HW272575   4.702   4.983   1.469 -0.1184 -0.2845  0.7910
23712SOL     OW72576   5.837   4.412  12.071  0.2567 -0.2938 -0.3553
23712SOL    HW172577   5.869   4.487  12.022  0.9664 -1.5969 -1.9961
23712SOL    HW272578   5.882   4.417  12.155  0.6103  0.8733 -0.6056
23713SOL     OW72579   1.999   0.417   9.196 -0.3081 -0.0394  0.2682
23713SOL    HW172580   1.960   0.467   9.267  1.1396 -0.5685  1.4815
23713SOL    HW272581   2.093   0.435   9.202 -0.2133  0.5651 -2.0539
23714SOL     OW72582   0.210   2.613  11.107  0.1104  0.3490 -0.3894
23714SOL    HW172583   0.247   2.564  11.033  1.2699  2.3518 -1.2024
23714SOL    HW272584   0.161   2.684  11.066 -2.6025 -0.7540  0.7361
23715SOL     OW72585   4.020   7.670   6.223 -0.7045 -0.1666  0.8593
23715SOL    HW172586   4.010   7.607   6.151 -0.8753 -0.1678  0.8840
23715SOL    HW272587   4.098   7.720   6.200 -2.5101  1.9994 -0.9590
23716SOL     OW72588   5.990   6.301  10.748  0.1557  0.3184 -0.4790
23716SOL    HW172589   6.042   6.376  10.777 -1.0606  0.8605  0.3402
23716SOL    HW272590   5.903   6.316  10.783 -0.5349 -0.6759 -1.6746
23717SOL     OW72591   5.023   5.807   1.917  0.1280 -0.6441 -0.5944
23717SOL    HW172592   4.966   5.878   1.887 -0.9331 -1.1092  0.2861
23717SOL    HW272593   5.079   5.789   1.841 -1.1880 -0.4884 -1.6471
23718SOL     OW72594   5.549   0.723   6.019  0.5246  0.6631 -0.3422
23718SOL    HW172595   5.591   0.748   5.936  1.5035  1.0409  0.2488
23718SOL    HW272596   5.545   0.804   6.069 -3.6973  1.3796 -1.4632
23719SOL     OW72597   5.450   6.455   0.600  0.9135 -0.2376 -0.0403
23719SOL    HW172598   5.493   6.540   0.610  0.5485  0.2383 -2.1191
23719SOL    HW272599   5.491   6.400   0.666  2.6892  0.9668 -0.0664
23720SOL     OW72600   5.777   4.522  10.354  0.2504 -0.4024 -0.7388
23720SOL    HW172601   5.833   4.594  10.324  0.5491  0.9742  2.7167
23720SOL    HW272602   5.694   4.537  10.308  0.4368  1.9359 -0.4464
23721SOL     OW72603   1.939   1.624   2.204 -0.5697  0.0845  0.1670
23721SOL    HW172604   2.023   1.667   2.225 -0.0909  0.2561 -1.9058
23721SOL    HW272605   1.873   1.689   2.229  0.0013  0.7389  0.0226
23722SOL     OW72606   2.204   2.889   1.094  0.0802 -0.0209 -0.3887
23722SOL    HW172607   2.199   2.858   1.184 -0.4473 -0.8139 -0.6790
23722SOL    HW272608   2.113   2.909   1.070  0.3035  0.9007 -0.5074
23723SOL     OW72609   4.351   2.558  11.122  0.7497  0.0456 -0.3123
23723SOL    HW172610   4.294   2.498  11.074 -0.2228  1.0832 -0.4780
23723SOL    HW272611   4.337   2.536  11.214 -1.5547  1.6369 -0.1951
23724SOL     OW72612   7.200   6.644  11.752  0.0755 -0.4652  0.1950
23724SOL    HW172613   7.108   6.656  11.776  0.2984  0.0296  0.8297
23724SOL    HW272614   7.234   6.582  11.815  0.6508  0.8112  1.1920
23725SOL     OW72615   4.846   2.156   7.865  0.0349 -0.1985  0.1234
23725SOL    HW172616   4.843   2.066   7.897 -0.3138 -0.0674  0.4554
23725SOL    HW272617   4.775   2.162   7.801  0.8000 -0.4940 -0.7902
23726SOL     OW72618   6.813   3.950   0.935  0.7044 -0.5017 -0.2216
23726SOL    HW172619   6.874   3.970   1.006 -0.8561 -0.7029  1.2254
23726SOL    HW272620   6.748   3.892   0.974 -0.2866 -0.5132 -1.7880
23727SOL     OW72621   0.738   7.332   8.642  0.2389 -0.2384  0.5396
23727SOL    HW172622   0.794   7.295   8.710 -0.6342 -2.0667  0.3403
23727SOL    HW272623   0.656   7.284   8.650  0.1652 -0.7010 -1.9209
23728SOL     OW72624   0.616   5.656   7.150 -0.4087 -0.2757  0.4177
23728SOL    HW172625   0.664   5.584   7.107  1.1343  1.4232 -0.8485
23728SOL    HW272626   0.676   5.689   7.216 -0.7032  0.4724  0.3212
23729SOL     OW72627   0.389   0.725  10.776  0.3129 -0.1061 -0.5446
23729SOL    HW172628   0.411   0.770  10.694 -0.5434  1.5142  0.0703
23729SOL    HW272629   0.301   0.690  10.762  0.3334 -0.1930 -0.4592
23730SOL     OW72630   2.878   7.298   2.104  0.3540 -0.5076 -0.8668
23730SOL    HW172631   2.819   7.249   2.162 -0.9214  1.3449 -0.5060
23730SOL    HW272632   2.854   7.268   2.016 -2.9352  1.8057 -0.9517
23731SOL     OW72633   5.766   1.355   1.025 -0.1794 -0.0229  0.2858
23731SOL    HW172634   5.768   1.380   0.932 -1.8259  0.2895  0.2919
23731SOL    HW272635   5.774   1.438   1.072  1.0232 -0.2177  0.4414
23732SOL     OW72636   3.858   7.275   8.731  0.3029 -0.0799  0.1001
23732SOL    HW172637   3.838   7.192   8.688 -1.4969 -0.7494  2.0411
23732SOL    HW272638   3.823   7.342   8.673 -0.5981 -0.8414 -0.2512
23733SOL     OW72639   1.565   1.874  11.867  0.0991  0.0081  0.0820
23733SOL    HW172640   1.614   1.955  11.879  0.9057 -0.5242  0.4559
23733SOL    HW272641   1.518   1.862  11.949 -0.5385  0.4286 -0.2127
23734SOL     OW72642   6.870   1.936   6.313  0.2760  0.2183 -0.2089
23734SOL    HW172643   6.821   1.982   6.381 -0.3048 -1.1307  0.3216
23734SOL    HW272644   6.863   1.993   6.237  1.1754  1.9093  0.9022
23735SOL     OW72645   6.646   5.087   9.794  0.6461  0.3258  0.0585
23735SOL    HW172646   6.737   5.070   9.771  0.4764 -1.0694  0.3125
23735SOL    HW272647   6.642   5.074   9.889  0.4324  1.6577  0.2479
23736SOL     OW72648   3.240   6.621   2.750  0.2507  0.4310 -0.4302
23736SOL    HW172649   3.297   6.565   2.697 -0.4165  0.2869 -1.0074
23736SOL    HW272650   3.152   6.587   2.734 -0.0840  1.1651 -0.1789
23737SOL     OW72651   1.673   2.604   5.692  0.1138 -0.0079 -0.1545
23737SOL    HW172652   1.729   2.552   5.634 -3.4086 -1.7915 -2.2921
23737SOL    HW272653   1.704   2.694   5.680  1.4623 -0.6956 -2.4619
23738SOL     OW72654   3.050   5.399   4.084 -1.2130 -0.5306 -0.0044
23738SOL    HW172655   3.070   5.348   4.162 -1.5941  0.1514  0.5588
23738SOL    HW272656   3.047   5.335   4.013  1.1359 -0.9040  0.1576
23739SOL     OW72657   7.177   4.015   9.962  0.5949  0.1343 -0.0843
23739SOL    HW172658   7.182   4.105   9.993  2.0148  0.7595 -1.9722
23739SOL    HW272659   7.266   3.981   9.972  0.5726 -0.3398 -1.3796
23740SOL     OW72660   1.059   7.002  12.034 -0.1392  0.4359 -0.3566
23740SOL    HW172661   1.016   6.917  12.043  0.5467  0.1793  0.5335
23740SOL    HW272662   1.016   7.058  12.098 -0.0798  0.5560 -0.4211
23741SOL     OW72663   1.107   4.492   1.249 -0.1990  0.2237  0.4163
23741SOL    HW172664   1.106   4.580   1.287  0.1388  0.7914 -0.8226
23741SOL    HW272665   1.091   4.507   1.155  0.4931 -0.9743  0.0935
23742SOL     OW72666   0.072   0.085   7.089 -0.0943 -0.3612 -0.1949
23742SOL    HW172667   0.057   0.091   7.183 -1.9614 -0.2027 -0.4782
23742SOL    HW272668   0.019   0.155   7.052 -0.6897 -1.4481 -1.4802
23743SOL     OW72669   5.517   0.509   5.640 -0.2346 -0.0624 -0.1580
23743SOL    HW172670   5.599   0.497   5.688 -1.1613 -2.1033  1.0383
23743SOL    HW272671   5.537   0.480   5.551 -0.0551 -2.3036  0.5592
23744SOL     OW72672   1.276   6.164   4.901 -0.0302  0.0027 -0.1125
23744SOL    HW172673   1.257   6.070   4.909  0.1720 -0.0361 -0.0731
23744SOL    HW272674   1.347   6.179   4.963 -1.1520  0.5202  1.0961
23745SOL     OW72675   4.938   4.130  10.658 -0.1502 -0.8273  0.1642
23745SOL    HW172676   4.977   4.176  10.584 -0.5621 -0.3777  0.2222
23745SOL    HW272677   4.852   4.102  10.626 -0.5896 -0.0876  0.6596
23746SOL     OW72678   0.760   2.762   7.716  0.5087  0.3190 -0.1553
23746SOL    HW172679   0.754   2.753   7.621 -0.3101  0.4529 -0.1215
23746SOL    HW272680   0.793   2.851   7.730 -0.3846  0.6799 -0.2984
23747SOL     OW72681   2.091   0.254   1.734 -0.2388  0.7116 -0.3552
23747SOL    HW172682   2.084   0.293   1.822 -0.2979  0.7700 -0.3858
23747SOL    HW272683   2.179   0.277   1.705  0.6776 -1.2959  0.6326
23748SOL     OW72684   5.757   0.568  10.100 -1.3757 -0.4569 -0.1899
23748SOL    HW172685   5.752   0.472  10.101 -0.4215 -0.5126  0.3682
23748SOL    HW272686   5.665   0.596  10.101 -1.6719 -1.3605 -0.4635
23749SOL     OW72687   5.933   7.782   6.966  0.0150 -0.2031  0.1316
23749SOL    HW172688   5.886   7.701   6.951 -1.7963  0.5388  1.4743
23749SOL    HW272689   6.021   7.755   6.991 -0.1678 -1.6806 -0.7079
23750SOL     OW72690   7.732   0.450   9.341  0.1679  0.0123  0.0629
23750SOL    HW172691   7.761   0.524   9.288 -0.1954  0.3290  0.3069
23750SOL    HW272692   7.725   0.378   9.278  1.2828 -0.0265 -0.0351
23751SOL     OW72693   5.564   0.533   0.683 -0.5688 -0.0345  0.0371
23751SOL    HW172694   5.616   0.587   0.742  0.1002  0.8370 -1.2831
23751SOL    HW272695   5.474   0.563   0.696 -0.6114 -0.7084  1.4637
23752SOL     OW72696   0.170   0.538   4.658  0.7705 -0.0294 -0.0581
23752SOL    HW172697   0.175   0.507   4.748  0.9779 -3.3130 -1.0815
23752SOL    HW272698   0.258   0.570   4.638  0.2404  2.6596  1.4048
23753SOL     OW72699   2.038   2.745   5.488  0.1965  0.2419 -0.4493
23753SOL    HW172700   2.105   2.720   5.552  1.8034  0.9499 -1.7604
23753SOL    HW272701   2.032   2.840   5.494 -2.1431  0.0682  0.9594
23754SOL     OW72702   2.496   0.149   4.030 -0.4525 -0.0101  0.4663
23754SOL    HW172703   2.506   0.241   4.056  0.8926 -0.2152  0.7526
23754SOL    HW272704   2.434   0.113   4.093  0.2298  0.3223  1.3582
23755SOL     OW72705   6.352   0.445   7.644  0.0201  0.7894 -0.4219
23755SOL    HW172706   6.326   0.408   7.560  0.2265 -0.3290 -0.0177
23755SOL    HW272707   6.269   0.460   7.691 -0.0894 -3.3402  1.1066
23756SOL     OW72708   1.150   1.666   2.428  0.2870  0.9494 -0.0052
23756SOL    HW172709   1.220   1.720   2.391  0.5726  1.1027  0.7558
23756SOL    HW272710   1.080   1.671   2.363  1.5456 -0.5315 -1.6271
23757SOL     OW72711   3.002   7.202   5.898  0.2651 -0.5411  0.1773
23757SOL    HW172712   3.004   7.204   5.994 -0.5235  1.2815  0.2090
23757SOL    HW272713   3.046   7.120   5.874  1.0759 -0.7083  2.0689
23758SOL     OW72714   5.650   5.983   2.621  0.6575 -0.7271 -0.1053
23758SOL    HW172715   5.608   5.974   2.706  0.0326  1.2577 -0.1579
23758SOL    HW272716   5.626   5.903   2.574 -0.4848 -1.0451  0.9609
23759SOL     OW72717   4.308   3.505   7.505  0.4094 -0.1177 -0.4874
23759SOL    HW172718   4.282   3.558   7.429  0.7333 -0.6711 -0.9979
23759SOL    HW272719   4.287   3.415   7.480  0.4695 -0.2997  0.1047
23760SOL     OW72720   3.457   3.836   0.672 -0.1429 -0.8718 -0.0739
23760SOL    HW172721   3.397   3.855   0.599 -1.6535  1.6981  1.6848
23760SOL    HW272722   3.410   3.773   0.726 -0.1071 -0.8641 -0.0341
23761SOL     OW72723   4.201   5.433   4.989 -0.7241 -0.4048  0.2701
23761SOL    HW172724   4.115   5.463   5.020 -0.6184  0.7866 -0.5371
23761SOL    HW272725   4.217   5.484   4.910 -0.9787 -3.3527 -1.8465
23762SOL     OW72726   7.699   2.897  11.287 -0.0695 -0.0406  0.3119
23762SOL    HW172727   7.686   2.848  11.206 -0.1606  1.9640 -0.9504
23762SOL    HW272728   7.794   2.901  11.297 -0.0280  0.5209 -0.2424
23763SOL     OW72729   4.240   6.788   9.997 -0.2464  0.0412 -0.1426
23763SOL    HW172730   4.198   6.809  10.080 -0.8781  0.5459 -0.5793
23763SOL    HW272731   4.242   6.872   9.949 -1.1012 -0.4947 -1.1638
23764SOL     OW72732   0.239   5.912  12.371 -0.3782 -0.3734 -0.1510
23764SOL    HW172733   0.290   5.989  12.347 -0.6700 -1.0491 -3.5543
23764SOL    HW272734   0.206   5.930  12.459 -0.5114  3.3983 -0.8358
23765SOL     OW72735   3.986   4.084   5.519  0.4877 -0.1323 -0.4993
23765SOL    HW172736   4.020   4.147   5.455 -1.6216 -0.3719 -1.9381
23765SOL    HW272737   3.895   4.109   5.532  0.2862 -1.3948  0.8499
23766SOL     OW72738   2.229   3.042   1.635 -0.2394  0.1559  0.3507
23766SOL    HW172739   2.142   3.004   1.647 -0.5519  1.0099  0.8605
23766SOL    HW272740   2.281   2.972   1.597 -0.9383 -0.6139  0.8006
23767SOL     OW72741   1.848   3.726   7.804  0.2772  0.1997  0.1681
23767SOL    HW172742   1.832   3.653   7.864  0.5467  0.2151  0.2600
23767SOL    HW272743   1.938   3.713   7.774 -0.1427 -0.2978 -0.9172
23768SOL     OW72744   3.320   7.261  12.300 -0.3382  0.3212  0.3407
23768SOL    HW172745   3.395   7.233  12.247  0.0219  0.4422  0.7779
23768SOL    HW272746   3.357   7.275  12.388 -0.5980  1.6967  0.2492
23769SOL     OW72747   7.073   0.460  10.057  0.2071 -0.1754 -0.2104
23769SOL    HW172748   7.140   0.395  10.035  1.4198  0.3496  1.6144
23769SOL    HW272749   7.027   0.476   9.975  1.3884 -1.6245 -1.2216
23770SOL     OW72750   2.796   1.259   5.783  0.0475 -0.3904  0.3579
23770SOL    HW172751   2.738   1.334   5.801 -0.3166 -0.5669 -0.0779
23770SOL    HW272752   2.816   1.266   5.690  1.2723  0.0475  0.6322
23771SOL     OW72753   3.596   6.715   5.895  0.3052  0.0786  0.2581
23771SOL    HW172754   3.552   6.690   5.977 -0.9594  1.2167 -0.0308
23771SOL    HW272755   3.681   6.673   5.900 -0.0995 -0.6445  1.7399
23772SOL     OW72756   7.223   7.573  12.159 -0.5567 -0.1445 -0.1165
23772SOL    HW172757   7.249   7.481  12.153 -0.5750 -0.1299 -0.4716
23772SOL    HW272758   7.128   7.572  12.150 -0.7164 -0.2126  1.3824
23773SOL     OW72759   3.933   3.492   5.313 -0.4472  0.0195  0.7701
23773SOL    HW172760   3.869   3.532   5.254  0.7313  0.8992  0.0517
23773SOL    HW272761   3.909   3.399   5.314 -0.6258  0.0045 -0.9879
23774SOL     OW72762   7.867   2.690   5.312  0.0933  0.3370 -0.0525
23774SOL    HW172763   7.772   2.701   5.319 -0.0691 -0.3193 -1.0479
23774SOL    HW272764   7.879   2.595   5.305  0.7608  0.4727 -0.8183
23775SOL     OW72765   4.025   3.598  12.217 -0.4395  0.7688 -0.2819
23775SOL    HW172766   3.961   3.640  12.275 -0.9735  0.0748 -0.3417
23775SOL    HW272767   4.007   3.504  12.227  0.7275  0.5465 -0.1328
23776SOL     OW72768   2.417   4.400   9.228  0.1905  0.1341 -0.0830
23776SOL    HW172769   2.348   4.389   9.293  0.7265 -0.8818  0.3384
23776SOL    HW272770   2.401   4.330   9.164  0.0235  0.7517 -0.7350
23777SOL     OW72771   1.754   7.446   3.925 -0.3408  0.4090  0.2676
23777SOL    HW172772   1.800   7.433   3.842 -0.7729 -1.9511  0.3502
23777SOL    HW272773   1.821   7.434   3.992 -0.6250 -0.9895  0.3261
23778SOL     OW72774   4.896   5.105   0.045  0.0796  0.1337  0.4162
23778SOL    HW172775   4.889   5.102   0.140  0.5320  0.8015  0.4760
23778SOL    HW272776   4.872   5.195   0.022 -0.2518 -0.0897 -0.1219
23779SOL     OW72777   2.049   7.941   1.806 -0.1346  0.4239 -0.8001
23779SOL    HW172778   2.027   7.872   1.743  1.3512  0.6658 -1.6287
23779SOL    HW272779   2.044   8.022   1.755 -0.3534  0.7776 -0.2250
23780SOL     OW72780   2.117   4.821   0.160 -0.2587  0.1294  0.1726
23780SOL    HW172781   2.105   4.771   0.080  0.2212 -2.7332  1.7612
23780SOL    HW272782   2.204   4.860   0.151 -0.5763  0.5980 -1.0390
23781SOL     OW72783   6.291   6.073   8.352  0.3524  0.0691  0.1466
23781SOL    HW172784   6.323   5.998   8.402  2.0981 -0.9314 -2.2981
23781SOL    HW272785   6.367   6.132   8.346 -0.1597  0.6899 -0.3679
23782SOL     OW72786   0.647   4.553  11.705  0.0360 -0.4863  0.1821
23782SOL    HW172787   0.664   4.476  11.759 -0.7417  0.7642  2.3411
23782SOL    HW272788   0.552   4.560  11.702  0.0754  1.5324  1.8455
23783SOL     OW72789   3.231   3.310   6.126 -0.2097 -0.1080  0.6576
23783SOL    HW172790   3.313   3.262   6.112 -0.3846  0.0048 -1.0910
23783SOL    HW272791   3.215   3.353   6.042 -1.2947  1.0918  1.4414
23784SOL     OW72792   5.010   2.906   2.953 -0.1577  0.6565 -0.0202
23784SOL    HW172793   4.978   2.945   3.035  0.5244  3.1230 -0.8333
23784SOL    HW272794   4.933   2.901   2.897 -0.1148  1.6478 -0.1796
23785SOL     OW72795   6.400   0.568  10.124 -0.6376  0.2106 -0.0366
23785SOL    HW172796   6.414   0.623  10.201 -2.3008  1.3717 -0.5233
23785SOL    HW272797   6.337   0.502  10.154 -1.2195  0.6115 -0.3685
23786SOL     OW72798   2.143   4.114   3.617  0.8840  0.1590 -0.2006
23786SOL    HW172799   2.199   4.191   3.627 -1.9767  2.4244 -0.1835
23786SOL    HW272800   2.118   4.114   3.525 -0.2618  0.1213  0.0950
23787SOL     OW72801   2.155   0.088   3.756  0.1349  0.6254 -0.1143
23787SOL    HW172802   2.172   0.174   3.793 -1.6876  0.0050  2.3996
23787SOL    HW272803   2.211   0.028   3.806 -0.6454  0.0369  0.0758
23788SOL     OW72804   1.221   5.330   3.305  0.0773 -0.1077 -0.3084
23788SOL    HW172805   1.253   5.355   3.219 -0.4403  1.0541 -0.1793
23788SOL    HW272806   1.299   5.301   3.353  0.3246 -1.0470 -1.2374
23789SOL     OW72807   4.179   0.991  10.758  0.2568 -0.0404  0.7124
23789SOL    HW172808   4.254   0.932  10.762  0.0343 -0.3660  0.2236
23789SOL    HW272809   4.218   1.078  10.751  0.5887 -0.1963  0.5908
23790SOL     OW72810   7.738   5.886   1.604 -0.2436 -0.2148  0.1212
23790SOL    HW172811   7.688   5.935   1.538  0.7872  1.4248  0.4825
23790SOL    HW272812   7.746   5.798   1.568 -0.0870  0.5134 -1.7607
23791SOL     OW72813   4.373   5.239  10.633  0.4176 -0.5363  0.1370
23791SOL    HW172814   4.420   5.164  10.596 -0.7885 -1.3608  0.2163
23791SOL    HW272815   4.289   5.240  10.588  0.3374  0.6701  0.2727
23792SOL     OW72816   4.371   5.461   7.900 -0.6198 -0.2180 -0.1661
23792SOL    HW172817   4.360   5.550   7.933 -1.4111  0.3203 -1.7537
23792SOL    HW272818   4.460   5.458   7.865  0.2962 -0.8566  2.0814
23793SOL     OW72819   6.867   1.481   3.279  0.2493  0.1232  0.5548
23793SOL    HW172820   6.884   1.525   3.363 -0.3417  0.1187  0.6764
23793SOL    HW272821   6.953   1.476   3.238  0.5576  0.0876  1.1815
23794SOL     OW72822   6.290   2.807  12.193  0.5656 -0.3327  0.1674
23794SOL    HW172823   6.292   2.723  12.146 -1.2650  0.0676 -0.7223
23794SOL    HW272824   6.374   2.848  12.172  1.2782 -1.7019  0.2020
23795SOL     OW72825   3.447   4.551  11.065  0.1445 -0.2412 -0.0955
23795SOL    HW172826   3.458   4.620  11.130 -1.1231 -0.3381  0.2358
23795SOL    HW272827   3.426   4.473  11.115 -2.1311 -0.0390 -0.6455
23796SOL     OW72828   6.070   7.687   2.073  0.2382  0.3994  0.3797
23796SOL    HW172829   6.015   7.756   2.109  0.8243  1.1600 -0.1449
23796SOL    HW272830   6.062   7.697   1.978 -0.4256 -0.8820  0.2837
23797SOL     OW72831   2.388   5.634   8.666  0.0590 -0.1994 -0.3754
23797SOL    HW172832   2.348   5.629   8.580 -0.5154 -0.9142 -0.0781
23797SOL    HW272833   2.320   5.604   8.726  0.5161  0.1005  0.3070
23798SOL     OW72834   7.533   7.970  12.326 -0.1703  0.5023  0.2473
23798SOL    HW172835   7.620   7.930  12.323  0.6678  2.3019 -0.7799
23798SOL    HW272836   7.474   7.897  12.347  1.4368 -0.9727 -0.1596
23799SOL     OW72837   2.487   6.757   7.827  0.0470 -0.0853 -0.2169
23799SOL    HW172838   2.405   6.784   7.785  0.3246 -0.8973 -1.3280
23799SOL    HW272839   2.541   6.836   7.825 -1.0459  0.7704  1.4931
23800SOL     OW72840   6.803   2.898   4.464 -0.9205  0.3947  0.7937
23800SOL    HW172841   6.819   2.845   4.386 -2.0279  0.4614  0.5101
23800SOL    HW272842   6.887   2.941   4.481 -0.2675 -0.6893  0.4667
23801SOL     OW72843   2.850   1.095   5.451 -0.1999 -0.1497  0.4971
23801SOL    HW172844   2.847   1.170   5.392 -0.5341 -0.0497  0.6395
23801SOL    HW272845   2.895   1.027   5.402 -0.7251 -0.1581  0.0189
23802SOL     OW72846   5.502   1.798   5.850 -0.7310 -0.4865  0.1598
23802SOL    HW172847   5.495   1.828   5.941 -0.4995  0.4572 -0.1234
23802SOL    HW272848   5.414   1.765   5.830 -1.0146  0.0709  0.4614
23803SOL     OW72849   6.525   4.670   2.989  0.6534  0.3597 -0.5028
23803SOL    HW172850   6.607   4.624   2.968  0.1394 -1.1365  0.5913
23803SOL    HW272851   6.464   4.641   2.922 -0.0126 -1.6423  0.8659
23804SOL     OW72852   5.367   7.451  10.966 -0.0438  0.4176  0.3181
23804SOL    HW172853   5.355   7.356  10.960  2.0937  0.1629 -1.3041
23804SOL    HW272854   5.450   7.462  11.013 -0.4940  1.5085  0.8850
23805SOL     OW72855   5.011   4.318   3.772 -0.6553 -0.2169 -0.3018
23805SOL    HW172856   5.007   4.391   3.835 -0.9256 -0.3002 -0.2181
23805SOL    HW272857   4.930   4.270   3.787  0.8459 -2.3206  1.7846
23806SOL     OW72858   1.225   6.835   9.832  0.3294 -0.0824  0.1535
23806SOL    HW172859   1.269   6.855   9.915  0.5841  2.6350 -0.5401
23806SOL    HW272860   1.290   6.854   9.765 -0.5368 -0.2097 -0.7450
23807SOL     OW72861   6.640   3.667  11.169  0.2970  0.3361 -0.5840
23807SOL    HW172862   6.558   3.702  11.134 -1.0414 -1.0771  0.9701
23807SOL    HW272863   6.633   3.573  11.157  1.3077  0.1188  0.3725
23808SOL     OW72864   1.983   7.071   7.339 -0.1274  0.5143  0.3479
23808SOL    HW172865   1.953   7.036   7.423 -1.8998 -0.2648 -0.5529
23808SOL    HW272866   2.032   7.150   7.362  0.3617 -0.2655  2.1663
23809SOL     OW72867   5.417   0.989   7.609 -0.3142 -0.4041 -0.3063
23809SOL    HW172868   5.349   1.041   7.651 -1.4588 -1.0520 -1.2751
23809SOL    HW272869   5.463   0.945   7.681 -1.0084 -0.0573  0.3569
23810SOL     OW72870   5.505   6.901   3.842  0.0514 -0.3254 -0.2664
23810SOL    HW172871   5.477   6.936   3.927 -1.5627  0.2841 -1.0190
23810SOL    HW272872   5.438   6.838   3.818  0.2271 -0.1346 -1.3162
23811SOL     OW72873   1.334   1.194  11.891 -0.5423  0.4545 -0.0637
23811SOL    HW172874   1.295   1.231  11.812 -0.1322 -0.6665 -0.8050
23811SOL    HW272875   1.428   1.196  11.874 -0.4257  0.5834  0.5727
23812SOL     OW72876   2.857   1.786   0.607 -0.1123  0.1163  0.3352
23812SOL    HW172877   2.772   1.820   0.634 -0.1016  2.0620 -1.8076
23812SOL    HW272878   2.845   1.691   0.607 -2.7261  0.3602 -1.1454
23813SOL     OW72879   3.673   2.814   0.987  0.0985 -0.7524 -0.3129
23813SOL    HW172880   3.722   2.896   0.991 -0.9353 -0.1718  1.9897
23813SOL    HW272881   3.739   2.745   0.998  0.5714 -0.0134  2.0658
23814SOL     OW72882   1.208   2.939   9.266 -0.2589  0.3582  0.2936
23814SOL    HW172883   1.152   2.946   9.188 -0.9258 -0.3286  0.7063
23814SOL    HW272884   1.278   2.879   9.240  0.2842  1.1885 -0.2101
23815SOL     OW72885   3.358   0.319   2.028 -0.2199 -0.2443  0.5804
23815SOL    HW172886   3.421   0.387   2.002 -0.7762  0.3427  0.7372
23815SOL    HW272887   3.408   0.238   2.026  0.8238  0.3366  1.6672
23816SOL     OW72888   2.400   7.957   6.497 -0.1387  0.3675 -0.1677
23816SOL    HW172889   2.318   7.908   6.483  0.5930 -1.2058  0.7332
23816SOL    HW272890   2.397   8.027   6.433 -0.7582 -1.5275 -2.3553
23817SOL     OW72891   1.179   1.155   4.329  0.2416  0.4703 -0.4047
23817SOL    HW172892   1.088   1.160   4.358  0.5664  0.7057  0.6174
23817SOL    HW272893   1.228   1.203   4.396  1.4587 -1.9876  0.5747
23818SOL     OW72894   0.902   4.430   8.819  0.0283 -0.1965 -0.3809
23818SOL    HW172895   0.858   4.390   8.894 -0.0115  1.5918  0.6225
23818SOL    HW272896   0.994   4.407   8.830  0.4200  1.9280  1.6114
23819SOL     OW72897   4.864   0.376   6.502 -0.2193  0.0037  0.4952
23819SOL    HW172898   4.769   0.382   6.490 -0.2300  0.7573  0.9328
23819SOL    HW272899   4.875   0.355   6.595  0.0424 -0.3006  0.3984
23820SOL     OW72900   4.012   5.715  11.926 -0.2622  0.6055  0.4399
23820SOL    HW172901   3.964   5.787  11.965 -2.8801 -1.0082  0.4463
23820SOL    HW272902   3.976   5.707  11.838 -0.5321 -1.0786  0.6697
23821SOL     OW72903   4.464   4.895   6.394  0.3781  0.1095  0.3685
23821SOL    HW172904   4.377   4.857   6.408 -0.1191  0.8901 -0.4989
23821SOL    HW272905   4.524   4.826   6.421 -0.5006 -1.5152 -1.5471
23822SOL     OW72906   2.503   0.749   7.195  0.6017 -0.3222 -0.0426
23822SOL    HW172907   2.442   0.823   7.192  2.0186  0.8608 -1.2709
23822SOL    HW272908   2.550   0.760   7.278  1.8839  1.1218 -0.9074
23823SOL     OW72909   0.307   2.903   9.929  0.1053 -0.3227 -0.3037
23823SOL    HW172910   0.222   2.916   9.972 -0.6695 -0.6252 -1.6874
23823SOL    HW272911   0.319   2.809   9.927 -0.4628 -0.3961 -1.7921
23824SOL     OW72912   3.714   6.474   4.686 -0.2276 -0.0642 -0.6725
23824SOL    HW172913   3.788   6.419   4.660  0.2659 -0.6771  1.7610
23824SOL    HW272914   3.650   6.414   4.723 -1.0287  0.6831 -0.8032
23825SOL     OW72915   4.866   5.044  11.528 -0.1721 -0.4443  0.5227
23825SOL    HW172916   4.818   4.984  11.585 -1.3431  1.1995  1.3384
23825SOL    HW272917   4.915   5.100  11.588 -1.3964  1.2945 -0.0255
23826SOL     OW72918   0.877   7.566   4.935 -0.5907  0.1865 -0.0271
23826SOL    HW172919   0.794   7.578   4.980  0.1589 -2.0381  2.2422
23826SOL    HW272920   0.874   7.626   4.860 -3.8557  0.7346  0.4094
23827SOL     OW72921   0.554   2.610   4.533  0.3041  0.4411 -0.5540
23827SOL    HW172922   0.567   2.580   4.443  2.1018 -2.9665  0.6622
23827SOL    HW272923   0.460   2.597   4.549 -0.0038  0.9159 -1.8199
23828SOL     OW72924   6.431   3.439   3.562  0.1824  0.1747  0.1112
23828SOL    HW172925   6.387   3.354   3.550  0.2762  0.2704 -1.0094
23828SOL    HW272926   6.492   3.424   3.635  1.9680 -1.4580 -1.6033
23829SOL     OW72927   6.137   6.759  10.448 -0.6616 -0.1037 -0.7144
23829SOL    HW172928   6.042   6.771  10.445 -0.7487 -0.6640 -0.2296
23829SOL    HW272929   6.172   6.841  10.412 -1.2656  1.0966  1.2910
23830SOL     OW72930   5.195   0.545   9.775 -0.1236 -0.3185 -0.3237
23830SOL    HW172931   5.120   0.542   9.717 -0.0234 -1.1279 -0.4309
23830SOL    HW272932   5.270   0.524   9.719 -0.1145 -1.8092  0.2062
23831SOL     OW72933   1.566   7.717   5.087  0.0465 -0.5424 -0.1025
23831SOL    HW172934   1.481   7.706   5.130 -0.1883  0.8915 -0.1294
23831SOL    HW272935   1.619   7.644   5.118 -1.2495 -1.5878 -0.2510
23832SOL     OW72936   1.166   0.464  12.365  0.0624  0.1908 -0.1428
23832SOL    HW172937   1.129   0.532  12.421  2.1587  0.3793  1.0895
23832SOL    HW272938   1.183   0.508  12.282 -1.3948  0.3562 -0.3917
23833SOL     OW72939   7.234   7.076  10.890  0.2984 -0.0220  0.3778
23833SOL    HW172940   7.187   7.007  10.844  0.0850 -0.4319  1.2091
23833SOL    HW272941   7.198   7.075  10.979  2.6975 -1.1605  1.4126
23834SOL     OW72942   2.872   4.108  10.238  0.4166  0.1799  0.6878
23834SOL    HW172943   2.866   4.203  10.235 -0.0665  0.1819  1.4041
23834SOL    HW272944   2.887   4.087  10.330  0.5842 -0.4319  0.5279
23835SOL     OW72945   5.709   7.558   0.952 -0.1847  0.2142 -0.6036
23835SOL    HW172946   5.790   7.517   0.922 -0.1931  0.1154 -0.4909
23835SOL    HW272947   5.640   7.512   0.904 -0.2626 -0.5238  0.1860
23836SOL     OW72948   6.495   3.246   6.779 -0.5876 -0.3297  0.4150
23836SOL    HW172949   6.477   3.210   6.692 -1.9914  0.4793  0.3341
23836SOL    HW272950   6.526   3.172   6.830 -1.2518 -1.1621 -0.3563
23837SOL     OW72951   2.090   5.167   0.074  0.2059  0.2532 -0.5413
23837SOL    HW172952   2.026   5.170   0.002  0.2909  2.3999 -0.5675
23837SOL    HW272953   2.052   5.106   0.137  0.2322 -1.9018 -2.4375
23838SOL     OW72954   6.755   2.733  10.815 -0.2863 -0.0825  0.1064
23838SOL    HW172955   6.840   2.769  10.791 -0.1243 -0.9762 -0.7054
23838SOL    HW272956   6.736   2.668  10.748 -0.9844 -0.8724  1.0390
23839SOL     OW72957   7.485   1.883   4.529 -0.0651 -0.2037 -0.0661
23839SOL    HW172958   7.415   1.948   4.525  0.0506 -0.0894 -0.2679
23839SOL    HW272959   7.558   1.929   4.571 -0.1702 -0.3783  0.3100
23840SOL     OW72960   0.861   6.493   5.415  0.5327 -0.0592  0.3345
23840SOL    HW172961   0.923   6.426   5.387  1.2277  0.3334  0.9196
23840SOL    HW272962   0.865   6.559   5.346  1.5099  0.4340  0.8473
23841SOL     OW72963   1.238   2.298   2.208 -0.6014 -0.2990 -0.2303
23841SOL    HW172964   1.307   2.233   2.194  0.5730  0.4645  1.6056
23841SOL    HW272965   1.156   2.249   2.202  0.1257 -1.3906 -1.6282
23842SOL     OW72966   2.992   4.680   5.195  0.1664 -0.3463  0.4277
23842SOL    HW172967   2.959   4.731   5.121  0.1360  0.7828  1.2078
23842SOL    HW272968   2.917   4.670   5.253  0.5301 -0.0474  0.9562
23843SOL     OW72969   3.183   6.177  11.026 -0.5460 -0.0138  0.0042
23843SOL    HW172970   3.099   6.203  10.989 -0.7093  0.6283  0.7779
23843SOL    HW272971   3.162   6.149  11.115  0.1703  1.0907  0.5514
23844SOL     OW72972   0.523   3.760  12.047 -0.2258 -0.1274 -0.2469
23844SOL    HW172973   0.479   3.674  12.050 -1.3984  0.4480 -0.2466
23844SOL    HW272974   0.614   3.741  12.070 -0.4038 -1.4122 -0.5187
23845SOL     OW72975   6.393   1.005   9.493  0.4118  0.0254  0.0353
23845SOL    HW172976   6.305   1.025   9.461 -0.2393  0.0367  1.6953
23845SOL    HW272977   6.432   1.090   9.511 -0.2262  0.0257  1.6764
23846SOL     OW72978   3.606   7.272   8.925  0.0658 -0.3854  0.4882
23846SOL    HW172979   3.694   7.290   8.893 -0.0748 -0.4244  0.0814
23846SOL    HW272980   3.577   7.355   8.963 -0.3315  0.0847 -0.8001
23847SOL     OW72981   7.739   6.934   1.128 -0.4228 -0.1636 -0.5037
23847SOL    HW172982   7.758   7.026   1.147 -1.8628  0.1610 -0.5503
23847SOL    HW272983   7.774   6.921   1.040  0.6414  0.0544 -0.1379
23848SOL     OW72984   2.547   4.193  10.014  0.0929  0.5193  0.3564
23848SOL    HW172985   2.595   4.132   9.957  0.2096  0.7878  0.1667
23848SOL    HW272986   2.456   4.185   9.986  0.2438  1.1699 -0.3510
23849SOL     OW72987   3.833   2.779   2.490  0.0556 -0.7442  0.3517
23849SOL    HW172988   3.867   2.868   2.499  1.2406 -1.3017  1.7405
23849SOL    HW272989   3.865   2.750   2.405 -0.4555  0.1744 -0.1779
23850SOL     OW72990   5.813   7.258   6.332  0.3041  0.2820 -0.2950
23850SOL    HW172991   5.723   7.287   6.351  1.2737  2.6484  1.1676
23850SOL    HW272992   5.826   7.280   6.240 -0.3610  0.6404 -0.3098
23851SOL     OW72993   6.887   6.710   8.354 -0.3057  0.4916  0.0013
23851SOL    HW172994   6.861   6.774   8.421  0.3773 -0.5368  1.2901
23851SOL    HW272995   6.960   6.752   8.308  0.2266  0.6046  0.9213
23852SOL     OW72996   7.809   4.386   5.934 -0.1063 -0.4171  0.0773
23852SOL    HW172997   7.840   4.393   5.844 -3.0777  0.0879 -0.9980
23852SOL    HW272998   7.855   4.309   5.969  2.2239  0.2413 -1.2991
23853SOL     OW72999   5.002   4.450   4.049  0.1672  0.0508 -0.8122
23853SOL    HW173000   4.973   4.536   4.018 -0.9033 -0.3298 -0.8938
23853SOL    HW273001   4.922   4.405   4.074  0.4700 -1.7960 -2.9044
23854SOL     OW73002   4.481   5.142   5.142  0.1038 -0.5807  0.4382
23854SOL    HW173003   4.496   5.231   5.174 -2.4079 -0.3764  1.2385
23854SOL    HW273004   4.523   5.086   5.207  1.5362 -0.0393  0.0338
23855SOL     OW73005   6.024   6.919   4.230  0.7100 -0.1065  0.3333
23855SOL    HW173006   5.967   6.934   4.305  1.3707 -0.5324  0.9355
23855SOL    HW273007   6.058   7.006   4.208 -0.0073  0.1183  0.0941
23856SOL     OW73008   2.213   3.228   3.712  0.0017  0.0738  0.1632
23856SOL    HW173009   2.266   3.236   3.634  2.6821  0.3880  1.8840
23856SOL    HW273010   2.188   3.318   3.734  0.2982  0.1193  0.3222
23857SOL     OW73011   4.410   0.486   0.209  0.4904  0.2010 -0.2879
23857SOL    HW173012   4.401   0.539   0.288 -0.1120 -1.2875  0.7048
23857SOL    HW273013   4.484   0.525   0.162 -0.6292  2.5855 -0.2208
23858SOL     OW73014   5.656   0.625   7.305  0.2330 -0.4031 -0.0054
23858SOL    HW173015   5.638   0.640   7.212 -0.6533  0.3917  0.2824
23858SOL    HW273016   5.590   0.676   7.351  1.6813  0.5721  1.0942
23859SOL     OW73017   2.394   1.553   8.612 -0.8724 -0.0196  0.1136
23859SOL    HW173018   2.431   1.621   8.555  1.7523 -1.1631  0.2776
23859SOL    HW273019   2.392   1.475   8.558  1.5397 -1.0951  1.4144
23860SOL     OW73020   7.927   5.989   8.454  0.3522 -0.0564 -0.2103
23860SOL    HW173021   7.865   5.931   8.409  1.1962 -0.7545 -0.4970
23860SOL    HW273022   8.000   5.932   8.479  0.2317  0.4580  1.4425
23861SOL     OW73023   5.617   5.845   5.171  0.2036 -0.0108 -0.3654
23861SOL    HW173024   5.538   5.809   5.211  0.2181 -0.6110 -0.8773
23861SOL    HW273025   5.665   5.884   5.245 -0.2446 -0.2320  0.0499
23862SOL     OW73026   5.353   3.553  11.121  0.2749 -0.0528 -0.0952
23862SOL    HW173027   5.349   3.484  11.187 -1.3780  0.4160  0.3379
23862SOL    HW273028   5.414   3.617  11.156 -0.9762  0.4420  1.2688
23863SOL     OW73029   1.047   4.406  12.163  0.3485  0.3558 -0.7545
23863SOL    HW173030   0.987   4.480  12.151  1.1143  0.9473 -1.0317
23863SOL    HW273031   1.106   4.411  12.087  0.4529 -0.4992 -0.7359
23864SOL     OW73032   7.619   5.029   2.441  1.0171 -0.2223  0.7638
23864SOL    HW173033   7.696   5.063   2.395 -0.9098  2.4055 -0.8223
23864SOL    HW273034   7.554   5.016   2.372 -0.5706 -0.5231  2.2499
23865SOL     OW73035   2.980   3.319  11.677  0.5730 -0.5498 -0.1434
23865SOL    HW173036   3.047   3.298  11.743 -0.6833 -0.1383  1.3205
23865SOL    HW273037   3.031   3.344  11.599  2.1243 -0.1871  0.9272
23866SOL     OW73038   1.069   1.567   5.265  0.0609 -0.2796 -0.0330
23866SOL    HW173039   1.142   1.627   5.282 -0.4126  0.4858 -0.6796
23866SOL    HW273040   0.992   1.623   5.259 -0.5082 -1.0282  0.0688
23867SOL     OW73041   2.751   0.412   9.416  0.0399 -0.6459  0.3555
23867SOL    HW173042   2.732   0.399   9.323  2.0559  0.2763 -0.2248
23867SOL    HW273043   2.801   0.334   9.442  1.0929 -0.0479  0.1634
23868SOL     OW73044   0.535   6.088   5.171  0.0940  0.4672  0.2861
23868SOL    HW173045   0.621   6.131   5.176  0.9331 -1.1559  0.2532
23868SOL    HW273046   0.473   6.155   5.201  0.9850  2.6716 -2.3854
23869SOL     OW73047   5.255   2.857   7.036  0.6411  0.4368  0.1986
23869SOL    HW173048   5.186   2.850   7.102  0.8301  0.1860  0.3708
23869SOL    HW273049   5.210   2.888   6.957  0.1968 -0.4605  0.0915
23870SOL     OW73050   2.852   6.775  10.552  0.1827  0.3061  0.5970
23870SOL    HW173051   2.927   6.720  10.578  0.2893 -0.5162 -1.3305
23870SOL    HW273052   2.809   6.795  10.635  0.9869 -1.4651  1.5201
23871SOL     OW73053   2.961   6.520   7.818  0.7222  0.8899 -0.3535
23871SOL    HW173054   2.902   6.566   7.758 -0.7544  1.7788  1.6602
23871SOL    HW273055   2.924   6.432   7.826  2.4286 -0.1423 -2.6782
23872SOL     OW73056   3.521   5.133   8.187 -0.4860  0.1267  0.4310
23872SOL    HW173057   3.451   5.087   8.140  1.3636 -3.1337  0.5919
23872SOL    HW273058   3.508   5.109   8.279  0.7129 -0.3780  0.4824
23873SOL     OW73059   5.376   2.494   0.784  0.6375 -0.3740 -1.0098
23873SOL    HW173060   5.470   2.505   0.795  0.3147  0.7112  1.0615
23873SOL    HW273061   5.337   2.529   0.864 -1.4674 -2.0324 -1.1923
23874SOL     OW73062   4.130   2.430  10.441 -0.3383 -0.5144 -0.2321
23874SOL    HW173063   4.177   2.356  10.481 -0.1192  0.1081  0.6983
23874SOL    HW273064   4.187   2.457  10.369 -0.0361 -0.7658 -0.0933
23875SOL     OW73065   5.896   1.697  11.693 -0.2724 -0.0354 -0.1159
23875SOL    HW173066   5.941   1.781  11.694  0.7312 -0.5163  2.3478
23875SOL    HW273067   5.804   1.719  11.683  0.0132  1.3402  0.1003
23876SOL     OW73068   5.519   4.598   6.552 -0.6338  0.0406  0.1539
23876SOL    HW173069   5.576   4.604   6.476 -1.3318 -0.2393 -0.4074
23876SOL    HW273070   5.569   4.638   6.623  0.5747 -0.8999 -0.1351
23877SOL     OW73071   5.155   0.198   5.538 -0.6011 -0.0032  0.3108
23877SOL    HW173072   5.167   0.132   5.606 -0.6008  0.0444  0.3560
23877SOL    HW273073   5.078   0.248   5.565 -0.2686  0.3785  0.5664
23878SOL     OW73074   7.018   7.804   1.686  0.5452  0.0253 -0.2482
23878SOL    HW173075   7.068   7.884   1.704  1.2532 -0.2361 -0.9816
23878SOL    HW273076   7.017   7.757   1.769  0.8115  0.4196 -0.0175
23879SOL     OW73077   5.919   7.322   4.201  0.1754 -0.6327 -0.1803
23879SOL    HW173078   5.864   7.309   4.124  0.9822 -2.1098 -0.5567
23879SOL    HW273079   5.866   7.373   4.261 -1.7577 -2.3134 -0.3616
23880SOL     OW73080   7.775   7.687   1.485 -0.2287  0.3716 -0.4190
23880SOL    HW173081   7.837   7.755   1.459 -1.6858  1.6207 -0.7994
23880SOL    HW273082   7.689   7.722   1.461 -1.1220 -1.1726  0.3267
23881SOL     OW73083   6.594   6.876   5.728 -0.0840  0.5779  0.5191
23881SOL    HW173084   6.665   6.928   5.765 -1.6761  2.7678  0.6923
23881SOL    HW273085   6.520   6.892   5.787 -0.5262 -2.4711  0.9720
23882SOL     OW73086   1.828   4.688  11.437 -0.1124 -0.0107 -0.1381
23882SOL    HW173087   1.910   4.641  11.419 -0.3877 -0.4507 -0.2595
23882SOL    HW273088   1.855   4.764  11.487  0.1277 -1.4773  2.1019
23883SOL     OW73089   2.833   5.635   6.225 -0.2282 -0.1762  0.4718
23883SOL    HW173090   2.878   5.661   6.145  0.3533 -3.2658 -0.3648
23883SOL    HW273091   2.740   5.637   6.203 -0.0382 -1.9112 -0.7048
23884SOL     OW73092   3.999   1.547   4.724  0.4778 -0.6623 -0.2958
23884SOL    HW173093   3.905   1.531   4.720 -0.1228  1.9539  1.2714
23884SOL    HW273094   4.026   1.557   4.632 -1.4140  1.5600 -0.6901
23885SOL     OW73095   2.911   3.917   4.595  0.1765 -0.0243 -0.0214
23885SOL    HW173096   2.991   3.877   4.563  1.8511 -0.3041  3.9289
23885SOL    HW273097   2.889   3.868   4.674 -4.6276 -0.6422 -1.3975
23886SOL     OW73098   1.785   4.248   4.241  0.5591 -0.1380 -0.4934
23886SOL    HW173099   1.819   4.293   4.163 -0.7474 -0.8971 -1.5370
23886SOL    HW273100   1.691   4.238   4.224  0.4615 -1.3869  0.6521
23887SOL     OW73101   4.194   6.085   9.082  0.2363 -0.0822 -0.3155
23887SOL    HW173102   4.120   6.024   9.082 -1.1393  1.4497 -2.5357
23887SOL    HW273103   4.270   6.029   9.097 -1.1754 -1.9685  0.3201
23888SOL     OW73104   7.043   6.522   1.931  0.0798 -0.3325 -0.6505
23888SOL    HW173105   7.069   6.455   1.995 -1.4097 -0.4604 -0.1345
23888SOL    HW273106   7.091   6.601   1.958  0.8558 -0.8461 -0.4809
23889SOL     OW73107   5.769   6.379   9.875 -0.5825  0.2569  0.5244
23889SOL    HW173108   5.805   6.432   9.803 -0.8597  0.8785  0.8320
23889SOL    HW273109   5.840   6.321   9.901 -0.2482  0.5310  0.2194
23890SOL     OW73110   3.713   7.585  10.113 -0.7334 -0.3191 -0.3329
23890SOL    HW173111   3.677   7.668  10.144 -0.1214 -0.1467 -0.0701
23890SOL    HW273112   3.638   7.525  10.111 -0.7038 -0.5314  2.1045
23891SOL     OW73113   5.993   3.292   4.692 -0.4782  0.0178 -0.1610
23891SOL    HW173114   6.017   3.271   4.602 -1.0458 -0.5583 -0.1843
23891SOL    HW273115   5.925   3.359   4.683  0.3867  0.9309 -0.1164
23892SOL     OW73116   1.833   0.032   2.175  0.1301  0.0755  0.2811
23892SOL    HW173117   1.890   0.098   2.136  1.3859 -0.0200  1.8424
23892SOL    HW273118   1.848   0.040   2.269  0.9422 -2.9156  0.5124
23893SOL     OW73119   4.161   0.370   6.900  0.2315  0.1844  0.6114
23893SOL    HW173120   4.218   0.333   6.968  1.1938  0.1724 -0.1874
23893SOL    HW273121   4.073   0.338   6.922  0.8086 -1.3277  0.8037
23894SOL     OW73122   5.591   2.428   8.251  0.6968  0.2457  0.6724
23894SOL    HW173123   5.665   2.418   8.190  0.7885  2.1493  0.3931
23894SOL    HW273124   5.583   2.343   8.294  1.4963 -0.7476 -1.0277
23895SOL     OW73125   5.276   3.799   5.126  0.2369  0.3977  0.3880
23895SOL    HW173126   5.289   3.766   5.215  2.0774 -0.6803 -0.2090
23895SOL    HW273127   5.300   3.891   5.130  1.5604  0.0625  0.7915
23896SOL     OW73128   0.469   5.507   3.401  0.4610 -0.5195  0.2471
23896SOL    HW173129   0.400   5.573   3.401 -0.2443 -1.1610  2.2133
23896SOL    HW273130   0.476   5.479   3.310  1.7924  3.1760 -0.9745
23897SOL     OW73131   7.194   4.004  12.216 -0.5267 -0.0109  0.2158
23897SOL    HW173132   7.156   3.972  12.298 -2.2738 -2.4658 -1.4296
23897SOL    HW273133   7.259   3.938  12.193 -1.5541 -0.5090 -1.3927
23898SOL     OW73134   3.175   3.653   1.100  0.1815 -0.1686 -0.3009
23898SOL    HW173135   3.147   3.563   1.114 -0.1270 -0.0601 -0.2271
23898SOL    HW273136   3.198   3.657   1.007  1.3575 -0.6431 -0.0439
23899SOL     OW73137   1.304   1.398   4.495  0.0825  0.2216  0.3255
23899SOL    HW173138   1.385   1.348   4.491  0.1491  0.1876  1.6175
23899SOL    HW273139   1.297   1.425   4.586 -1.2287  0.4488  0.1792
23900SOL     OW73140   2.881   4.678  12.381  0.5637  0.5182 -0.6063
23900SOL    HW173141   2.932   4.707  12.305  0.2352  2.6472 -0.0874
23900SOL    HW273142   2.943   4.625  12.432  1.0452 -0.2156 -1.9103
23901SOL     OW73143   3.543   2.886   8.641  0.3523 -0.3753  0.1937
23901SOL    HW173144   3.635   2.864   8.650  0.2663 -0.3077  1.3947
23901SOL    HW273145   3.503   2.805   8.607  1.3993  0.7490 -4.3215
23902SOL     OW73146   4.133   6.662   3.642 -0.4901 -0.1811 -0.0150
23902SOL    HW173147   4.163   6.745   3.677 -1.0224 -0.5032  1.2399
23902SOL    HW273148   4.214   6.615   3.618 -0.0953 -0.1167  1.1598
23903SOL     OW73149   6.731   6.327   4.257  0.4545 -0.2718  0.5484
23903SOL    HW173150   6.645   6.292   4.232 -0.0644  2.0091 -1.1453
23903SOL    HW273151   6.788   6.306   4.184  0.1362  2.2153 -0.5044
23904SOL     OW73152   4.337   0.181   8.110  0.2166  0.0307  0.3180
23904SOL    HW173153   4.294   0.265   8.122  0.0370 -0.2140  1.4867
23904SOL    HW273154   4.275   0.129   8.060  0.4432  0.6663 -0.6550
23905SOL     OW73155   2.517   3.777   8.030 -0.2539  0.1917  0.2901
23905SOL    HW173156   2.553   3.809   8.113  0.4741 -4.3011  2.0092
23905SOL    HW273157   2.593   3.772   7.972 -0.0116 -0.0259  0.6180
23906SOL     OW73158   1.559   6.531   3.502  0.4219 -0.2075 -0.8441
23906SOL    HW173159   1.588   6.523   3.411 -0.0245 -1.1161 -0.9117
23906SOL    HW273160   1.635   6.506   3.554  0.3587 -0.7137 -0.9893
23907SOL     OW73161   4.732   7.400   6.951  0.5759  0.1382 -1.0648
23907SOL    HW173162   4.753   7.309   6.972  1.2693  0.0975 -1.8671
23907SOL    HW273163   4.751   7.408   6.858  0.4616  1.0924 -1.0180
23908SOL     OW73164   1.476   4.522  10.301 -0.0781 -0.0257  0.4282
23908SOL    HW173165   1.397   4.573  10.315 -0.4809 -0.5722  0.1862
23908SOL    HW273166   1.527   4.533  10.382  0.7532  2.3030 -0.3383
23909SOL     OW73167   0.917   0.834   3.115 -0.2309  0.5332  0.4228
23909SOL    HW173168   0.866   0.776   3.172 -1.0686  0.0726 -0.7564
23909SOL    HW273169   0.863   0.913   3.108  0.3779  1.0222  1.1153
23910SOL     OW73170   1.507   7.764   1.374 -0.1221  0.0702  0.0197
23910SOL    HW173171   1.570   7.698   1.404  0.6716  0.9349  0.3055
23910SOL    HW273172   1.561   7.832   1.333 -0.8961  0.7089  0.0374
23911SOL     OW73173   7.109   6.305   0.511  0.0184  0.0878 -0.1898
23911SOL    HW173174   7.091   6.219   0.549 -0.5134  0.7426  1.1029
23911SOL    HW273175   7.205   6.310   0.508  0.1044  0.1448  1.4556
23912SOL     OW73176   0.625   1.631   8.776  0.2777 -0.1908 -0.1797
23912SOL    HW173177   0.570   1.557   8.805  0.4751 -0.8443 -1.4266
23912SOL    HW273178   0.700   1.590   8.733 -0.3154  0.7151 -2.1956
23913SOL     OW73179   3.389   7.303   4.484 -0.6112 -0.2795  0.3486
23913SOL    HW173180   3.315   7.306   4.424  0.4632 -0.7722 -1.0362
23913SOL    HW273181   3.349   7.306   4.571 -2.3245 -1.4990 -0.3406
23914SOL     OW73182   2.668   5.344   6.094  0.4638  0.1423  0.2295
23914SOL    HW173183   2.660   5.398   6.173 -1.5705 -0.6500  0.6222
23914SOL    HW273184   2.715   5.266   6.123 -0.8292 -0.4348  0.8644
23915SOL     OW73185   7.650   7.318   3.075  0.0041 -0.0896  0.0054
23915SOL    HW173186   7.590   7.311   3.150  0.2849  1.8285  0.4717
23915SOL    HW273187   7.607   7.269   3.005 -0.4204 -1.6615  1.3176
23916SOL     OW73188   1.901   0.055   0.839  0.1055  0.1044  0.1620
23916SOL    HW173189   1.892   0.114   0.764  3.5168  0.8623  0.1574
23916SOL    HW273190   1.858  -0.026   0.811 -1.6333  1.4243 -1.2257
23917SOL     OW73191   6.179   3.668   6.033  0.1983 -0.0804 -0.4431
23917SOL    HW173192   6.185   3.599   5.967 -0.4560  0.0249 -0.6236
23917SOL    HW273193   6.085   3.689   6.037  0.2230 -0.1266  0.5675
23918SOL     OW73194   4.115   0.018   9.857  0.3624 -0.1302 -0.1751
23918SOL    HW173195   4.176   0.013   9.783  2.7038  0.1078  1.6325
23918SOL    HW273196   4.124   0.107   9.891  0.6592 -0.7480  1.4476
23919SOL     OW73197   1.916   0.261   0.094 -0.2469  0.3661  0.6188
23919SOL    HW173198   1.828   0.286   0.122 -0.6997  0.3101 -0.6733
23919SOL    HW273199   1.906   0.241   0.001  1.4207  1.8359  0.0820
23920SOL     OW73200   2.274   0.352   4.343  0.2728  0.1581 -0.0728
23920SOL    HW173201   2.223   0.353   4.263  1.1163  2.1388 -0.6369
23920SOL    HW273202   2.213   0.379   4.412 -0.6937 -2.4172  0.1949
23921SOL     OW73203   6.514   5.010   6.184 -0.0603 -0.0887 -0.6217
23921SOL    HW173204   6.490   5.015   6.091 -0.1507 -0.1350 -0.6008
23921SOL    HW273205   6.588   5.070   6.192 -0.7891  0.8274 -0.4926
23922SOL     OW73206   1.356   5.283   0.759  0.2373 -0.1040 -0.5661
23922SOL    HW173207   1.275   5.246   0.724  0.5036 -1.4032  0.1339
23922SOL    HW273208   1.368   5.365   0.711 -0.8073 -0.5284 -1.5871
23923SOL     OW73209   2.427   0.554   0.611  0.0158 -0.2973 -1.0679
23923SOL    HW173210   2.367   0.535   0.682  1.8728 -1.3670  0.2885
23923SOL    HW273211   2.387   0.514   0.534 -1.1052 -0.7563 -0.2714
23924SOL     OW73212   0.295   5.309   4.019  0.1924 -0.0848 -0.0979
23924SOL    HW173213   0.305   5.353   3.935 -0.5655  0.3630  0.0410
23924SOL    HW273214   0.228   5.359   4.066  0.3286 -0.5509  0.6254
23925SOL     OW73215   4.735   7.098   4.644 -0.0285 -0.0002  0.3903
23925SOL    HW173216   4.703   7.040   4.575  0.2510  0.3300 -0.0228
23925SOL    HW273217   4.670   7.168   4.649 -0.0660 -0.0429  0.4778
23926SOL     OW73218   0.497   5.123   2.756  0.0241  0.0608  0.3591
23926SOL    HW173219   0.544   5.175   2.691  1.1973 -1.3756  0.0077
23926SOL    HW273220   0.413   5.102   2.715  0.6788 -0.6722 -0.6411
23927SOL     OW73221   1.088   1.728  12.321  0.3193 -0.0228  0.9108
23927SOL    HW173222   1.131   1.756  12.401  2.0014  0.3785 -0.0952
23927SOL    HW273223   1.113   1.793  12.256  0.4012 -1.2573 -0.3423
23928SOL     OW73224   7.508   1.041   0.242 -0.2163  0.4940  0.3713
23928SOL    HW173225   7.459   0.968   0.281  2.2143 -1.0503  0.7711
23928SOL    HW273226   7.557   1.078   0.315  0.6179  0.7887 -0.3314
23929SOL     OW73227   1.454   7.535   2.857 -0.2752  0.2270  0.4339
23929SOL    HW173228   1.482   7.488   2.779  2.1161  1.3617  0.5224
23929SOL    HW273229   1.384   7.593   2.827 -1.6796 -1.6431 -0.1155
23930SOL     OW73230   5.176   4.635   9.295 -0.0432  0.0096  0.4121
23930SOL    HW173231   5.190   4.730   9.296  0.2561 -0.0099 -0.9251
23930SOL    HW273232   5.101   4.622   9.353  0.8284  0.8982  1.7933
23931SOL     OW73233   0.038   3.837  10.416 -0.8138  0.8389  0.5811
23931SOL    HW173234   0.113   3.778  10.410 -1.4325 -0.0364  1.2170
23931SOL    HW273235   0.049   3.898  10.343 -0.3017 -0.2307 -0.2564
23932SOL     OW73236   0.319   4.245   3.437  0.1139  0.0315  0.5197
23932SOL    HW173237   0.226   4.227   3.447 -0.5119  1.4750 -1.7542
23932SOL    HW273238   0.335   4.321   3.492 -0.0586 -0.2161  0.9112
23933SOL     OW73239   1.764   5.958  10.898 -0.3561  0.0614 -0.3027
23933SOL    HW173240   1.747   5.864  10.889 -1.1485  0.1125  0.5397
23933SOL    HW273241   1.849   5.963  10.942 -0.4965 -0.2788  0.0171
23934SOL     OW73242   7.765   4.329  11.218 -0.2789  0.1872 -0.1364
23934SOL    HW173243   7.770   4.301  11.126  0.1260  0.0200 -0.0662
23934SOL    HW273244   7.855   4.322  11.250 -0.6631 -1.2045  0.7123
23935SOL     OW73245   5.398   5.760   5.326  0.3559  0.0890  0.5381
23935SOL    HW173246   5.428   5.686   5.380 -0.8204 -0.7065  0.1318
23935SOL    HW273247   5.327   5.799   5.377  0.5715  0.5665  0.4718
23936SOL     OW73248   5.165   1.974  10.106  0.0870  0.5149 -0.4784
23936SOL    HW173249   5.151   2.057  10.151  1.6658  0.8599 -0.5787
23936SOL    HW273250   5.105   1.977  10.031 -0.7803  0.9909  0.2091
23937SOL     OW73251   1.816   5.334   3.226 -1.0420  0.0689 -0.4483
23937SOL    HW173252   1.860   5.257   3.261  1.4796  1.5822 -0.0512
23937SOL    HW273253   1.801   5.313   3.134  0.3993 -0.5870 -0.5568
23938SOL     OW73254   1.250   6.832   5.398  0.3169  0.4631  0.4640
23938SOL    HW173255   1.334   6.824   5.444 -0.1781  0.1635  1.3439
23938SOL    HW273256   1.198   6.758   5.430  1.4067 -2.5838 -3.8620
23939SOL     OW73257   2.177   4.209   8.765 -0.2081  0.2630  0.5679
23939SOL    HW173258   2.109   4.274   8.783 -1.2835 -0.2109 -1.5046
23939SOL    HW273259   2.258   4.251   8.795 -1.0896  1.8061  0.9318
23940SOL     OW73260   0.243   5.603   4.310  0.1152  0.1704 -0.6323
23940SOL    HW173261   0.179   5.663   4.271  0.4872  1.1077  0.1484
23940SOL    HW273262   0.230   5.613   4.404  1.5405  0.5372 -0.4555
23941SOL     OW73263   6.430   5.197  10.928 -0.4008  0.2146  0.1856
23941SOL    HW173264   6.448   5.285  10.961 -2.1045 -0.0094  1.8753
23941SOL    HW273265   6.450   5.139  11.001 -1.1183 -0.6182 -0.2621
23942SOL     OW73266   6.414   0.288   1.337  0.3344  0.3932  0.2256
23942SOL    HW173267   6.330   0.312   1.297  0.5318  0.4422 -0.1603
23942SOL    HW273268   6.480   0.314   1.272  0.5517 -1.3842 -0.3258
23943SOL     OW73269   4.892   6.370   5.687 -0.3345 -0.1154  0.3305
23943SOL    HW173270   4.847   6.443   5.729 -0.4482 -0.8501  1.5141
23943SOL    HW273271   4.824   6.326   5.636 -0.9049 -1.0004  1.8113
23944SOL     OW73272   7.821   7.378   2.745  0.3073  0.0415 -0.2333
23944SOL    HW173273   7.839   7.285   2.726 -0.6484  0.1340 -1.7503
23944SOL    HW273274   7.731   7.378   2.778  0.5415  0.3678  0.4170
23945SOL     OW73275   5.388   5.849   2.569 -0.2513 -0.6762  0.3383
23945SOL    HW173276   5.420   5.800   2.645  2.1693  0.4775  0.1627
23945SOL    HW273277   5.410   5.794   2.494 -1.7485 -1.3661  0.3741
23946SOL     OW73278   1.454   0.301  11.461 -0.2874  0.2747 -0.0099
23946SOL    HW173279   1.403   0.328  11.384  2.1029  0.7146 -1.5368
23946SOL    HW273280   1.469   0.208  11.448 -0.0100  0.3188 -0.0126
23947SOL     OW73281   6.596   2.830   0.255 -0.1538 -0.7203 -0.1481
23947SOL    HW173282   6.690   2.826   0.274 -0.1241  2.1303  0.9303
23947SOL    HW273283   6.554   2.807   0.338 -0.3669 -0.9221 -0.3126
23948SOL     OW73284   4.102   4.569   1.529  0.2061 -0.4040 -0.0866
23948SOL    HW173285   4.118   4.567   1.435 -0.0617  0.1132 -0.1452
23948SOL    HW273286   4.030   4.631   1.541 -0.3316 -1.0954  0.3801
23949SOL     OW73287   4.090   0.749   8.627 -0.1653  0.2116  0.3023
23949SOL    HW173288   4.172   0.737   8.580  0.3434 -0.5369  1.3653
23949SOL    HW273289   4.065   0.661   8.656 -1.1687  0.4733  0.3000
23950SOL     OW73290   1.434   1.367   7.190 -0.0427 -0.4237 -0.2011
23950SOL    HW173291   1.381   1.384   7.267  2.2953 -0.4715  1.5190
23950SOL    HW273292   1.379   1.394   7.116 -2.7344 -1.3048  1.3558
23951SOL     OW73293   4.071   2.022  11.079 -0.0525 -0.7004 -0.6680
23951SOL    HW173294   3.997   1.962  11.068 -0.3669 -0.4500 -0.0098
23951SOL    HW273295   4.047   2.099  11.027 -0.9138 -0.0568  0.6381
23952SOL     OW73296   0.839   5.368   3.722  0.5316  0.1867 -0.1677
23952SOL    HW173297   0.853   5.426   3.647 -0.8886  0.2636 -0.3853
23952SOL    HW273298   0.759   5.399   3.763  0.2387 -1.0516  0.2591
23953SOL     OW73299   3.468   3.640   3.932  0.0642 -0.2803 -0.3540
23953SOL    HW173300   3.482   3.566   3.991  0.2049  1.0659  1.3503
23953SOL    HW273301   3.378   3.629   3.901  0.0575 -1.1234 -0.0572
23954SOL     OW73302   5.087   1.963   3.040 -0.1616  0.0353  0.0787
23954SOL    HW173303   5.149   1.934   2.973 -1.4489 -0.3770 -0.9769
23954SOL    HW273304   5.026   1.889   3.050  0.1080  0.0156  1.8593
23955SOL     OW73305   0.352   1.390   5.830  0.1455  0.0680 -0.7455
23955SOL    HW173306   0.318   1.351   5.911 -0.3953  1.8267 -0.0642
23955SOL    HW273307   0.445   1.367   5.829  0.1332 -0.0897  0.3206
23956SOL     OW73308   0.595   5.279   5.367 -0.4804 -0.0307  0.1766
23956SOL    HW173309   0.566   5.246   5.452 -2.3972  1.7926  0.3116
23956SOL    HW273310   0.566   5.213   5.304  0.4726 -1.1292  0.8579
23957SOL     OW73311   5.028   1.397   2.277  0.5694  0.3731 -0.1369
23957SOL    HW173312   4.991   1.394   2.365 -0.1590 -0.1743 -0.4449
23957SOL    HW273313   4.955   1.422   2.221  0.4261 -1.5105 -0.8641
23958SOL     OW73314   7.488   4.241   6.129 -0.6026  0.3820  0.2511
23958SOL    HW173315   7.400   4.230   6.093 -0.8948 -1.3701  1.3364
23958SOL    HW273316   7.531   4.156   6.114  0.1333  0.4772  1.6121
23959SOL     OW73317   7.235   6.807   1.294 -0.1166  0.2938 -0.0415
23959SOL    HW173318   7.307   6.857   1.332 -0.5031  0.6335  0.2616
23959SOL    HW273319   7.266   6.717   1.294 -0.2224  0.2359  1.3985
23960SOL     OW73320   6.398   3.743   1.700  0.0413  0.2611  0.5446
23960SOL    HW173321   6.310   3.706   1.693 -0.3146  0.9933  1.0185
23960SOL    HW273322   6.415   3.747   1.795 -0.0400  1.5340  0.5232
23961SOL     OW73323   4.347   7.741   4.255 -0.6317  0.4170  0.3637
23961SOL    HW173324   4.274   7.787   4.213 -1.5630 -0.0251  1.4205
23961SOL    HW273325   4.308   7.659   4.285  0.0448  0.5949  1.8157
23962SOL     OW73326   6.614   5.939   9.636 -0.0371  0.5003  0.4536
23962SOL    HW173327   6.630   5.852   9.674  0.8000  1.3841  2.2319
23962SOL    HW273328   6.518   5.943   9.628 -0.2088 -0.0546  1.7814
23963SOL     OW73329   3.061   6.427   0.663 -0.4490 -0.1396 -0.5002
23963SOL    HW173330   3.120   6.501   0.648 -1.1952  0.4559 -0.5576
23963SOL    HW273331   3.057   6.418   0.758 -1.4723  0.8277 -0.4350
23964SOL     OW73332   5.177   2.239   8.731 -0.5579 -0.0624 -0.1977
23964SOL    HW173333   5.226   2.315   8.702 -2.1123  0.1106 -2.6478
23964SOL    HW273334   5.129   2.270   8.808 -0.1303  1.0394 -0.3570
23965SOL     OW73335   1.904   6.808   8.463  0.0905  0.1624  0.2608
23965SOL    HW173336   1.851   6.868   8.515 -2.4012  0.2247 -2.1418
23965SOL    HW273337   1.938   6.861   8.392 -0.5202 -0.8114 -0.7890
23966SOL     OW73338   4.553   3.550  10.308  0.6460  0.4287  0.3318
23966SOL    HW173339   4.621   3.521  10.248  0.6356 -0.4144  0.7191
23966SOL    HW273340   4.554   3.646  10.300  0.6619  0.3451 -0.9795
23967SOL     OW73341   5.147   7.602   4.495 -0.6287 -0.1249  0.0137
23967SOL    HW173342   5.086   7.532   4.471  1.4570 -3.0325  2.3320
23967SOL    HW273343   5.228   7.579   4.450 -0.3491  1.9668 -0.6520
23968SOL     OW73344   5.433   4.071  11.128  0.1584  1.0724  0.8579
23968SOL    HW173345   5.371   4.054  11.056 -0.0947  1.9510  0.8565
23968SOL    HW273346   5.477   3.987  11.141 -1.1241  0.3800  0.9463
23969SOL     OW73347   0.296   4.246  10.804 -0.6075 -0.7329 -0.2694
23969SOL    HW173348   0.213   4.267  10.847 -0.7760 -1.4770 -0.2161
23969SOL    HW273349   0.325   4.165  10.846 -0.5690 -1.2568 -1.2732
23970SOL     OW73350   6.989   1.559   4.727 -0.2336  0.6139  0.1503
23970SOL    HW173351   6.973   1.626   4.793  0.7307  0.5007  0.5205
23970SOL    HW273352   6.949   1.593   4.647  0.2297  1.6346  0.3384
23971SOL     OW73353   0.594   7.288   9.568 -0.1430 -0.7709 -0.4610
23971SOL    HW173354   0.528   7.286   9.499 -0.7489  0.2660  0.0554
23971SOL    HW273355   0.546   7.317   9.645  0.9081 -0.0486 -0.0638
23972SOL     OW73356   2.868   7.950   3.533 -0.4363  0.2480 -0.5611
23972SOL    HW173357   2.832   7.865   3.507 -0.2133 -0.0161 -0.0079
23972SOL    HW273358   2.794   7.996   3.572  0.1869 -1.0011  2.3107
23973SOL     OW73359   7.931   7.090   8.394  0.4336 -0.1986 -0.0938
23973SOL    HW173360   7.955   7.021   8.331  0.1142  1.5708 -2.2933
23973SOL    HW273361   7.871   7.047   8.455 -0.4503 -1.7022 -1.9063
23974SOL     OW73362   5.769   1.164   3.849 -0.6036  0.2007  0.1360
23974SOL    HW173363   5.750   1.142   3.757  1.4526 -0.9799 -0.0666
23974SOL    HW273364   5.762   1.080   3.895 -0.1331  0.5000  0.7691
23975SOL     OW73365   3.807   6.969   3.655  0.0367  0.4650 -0.4699
23975SOL    HW173366   3.844   6.881   3.646 -0.6354  0.1420 -0.1370
23975SOL    HW273367   3.877   7.021   3.695  0.2918 -0.0213 -0.2817
23976SOL     OW73368   7.179   6.787   7.045 -0.8478 -0.4170 -0.1218
23976SOL    HW173369   7.199   6.809   7.136 -1.0260 -0.0750 -0.1616
23976SOL    HW273370   7.142   6.699   7.049 -0.8720 -0.3962  0.1382
23977SOL     OW73371   1.633   0.349  11.170 -0.1712 -0.6203 -0.2068
23977SOL    HW173372   1.578   0.287  11.123  0.0570  0.4756 -1.9917
23977SOL    HW273373   1.721   0.312  11.164 -0.4247 -1.5966  1.3418
23978SOL     OW73374   2.832   0.567   2.761  0.5675  0.6313 -0.0675
23978SOL    HW173375   2.894   0.620   2.812 -0.6876  1.7234  0.3815
23978SOL    HW273376   2.750   0.616   2.766 -0.0959 -0.3017 -1.4447
23979SOL     OW73377   5.131   3.457  10.676  0.2626 -0.2016 -0.3476
23979SOL    HW173378   5.134   3.474  10.582 -0.0243 -1.1111 -0.5411
23979SOL    HW273379   5.122   3.361  10.682  1.0363 -0.2256  0.6185
23980SOL     OW73380   2.698   5.030   1.038 -0.7162  0.0606  0.2175
23980SOL    HW173381   2.774   5.079   1.008 -0.0632 -1.8990 -1.5331
23980SOL    HW273382   2.644   5.018   0.960 -2.6413  0.9835  1.3215
23981SOL     OW73383   6.433   6.899   1.556 -0.1533  0.0631  0.5857
23981SOL    HW173384   6.390   6.970   1.603 -0.2576  1.4159 -1.4272
23981SOL    HW273385   6.399   6.819   1.597 -1.4478  1.1491  1.7102
23982SOL     OW73386   1.210   6.053   5.739 -0.5139 -0.1625  0.4819
23982SOL    HW173387   1.169   5.995   5.674 -0.8821  0.0055  0.5625
23982SOL    HW273388   1.231   5.994   5.812 -1.7584 -0.0535  0.9669
23983SOL     OW73389   0.760   2.307  11.687 -0.1820  0.5943 -0.2426
23983SOL    HW173390   0.798   2.391  11.711  1.7298 -0.5501  1.0503
23983SOL    HW273391   0.831   2.260  11.644 -0.7913 -0.8445  0.2574
23984SOL     OW73392   3.238   5.273   1.375 -0.6951  0.1903 -0.2212
23984SOL    HW173393   3.215   5.259   1.283 -0.5269  2.2779 -0.6254
23984SOL    HW273394   3.183   5.346   1.403 -1.4571 -1.0131  1.6676
23985SOL     OW73395   3.141   3.102  12.097  0.3327 -0.3233 -0.1317
23985SOL    HW173396   3.150   3.164  12.025 -2.0418 -2.1217 -2.1315
23985SOL    HW273397   3.214   3.041  12.086 -0.0910 -0.6600 -1.1175
23986SOL     OW73398   4.613   6.963  11.649 -0.3435  0.5240 -0.2176
23986SOL    HW173399   4.623   6.925  11.561 -1.0717 -0.1207 -0.0377
23986SOL    HW273400   4.529   6.928  11.680  0.6676 -0.6310  1.3936
23987SOL     OW73401   4.972   2.522   7.577  0.4010 -0.1380  0.3595
23987SOL    HW173402   4.891   2.491   7.617  0.4968 -0.5961  0.2018
23987SOL    HW273403   5.037   2.456   7.600  0.9999  0.8083  1.4738
23988SOL     OW73404   3.920   7.919   8.526 -0.0261 -0.2664 -0.1899
23988SOL    HW173405   3.928   8.003   8.571 -0.4055  0.4720 -1.4506
23988SOL    HW273406   4.008   7.901   8.493  0.2648 -0.8346  0.8446
23989SOL     OW73407   1.803   4.652   2.099 -0.4691  0.5013  0.5173
23989SOL    HW173408   1.869   4.635   2.031  0.9570  2.6011  1.2888
23989SOL    HW273409   1.735   4.587   2.082 -0.5963  1.4052 -3.4082
23990SOL     OW73410   2.186   1.454   2.137 -0.1871 -0.7470 -0.2667
23990SOL    HW173411   2.219   1.517   2.201  0.1402  0.7090 -1.8232
23990SOL    HW273412   2.105   1.491   2.105  0.4364 -0.6478 -1.8323
23991SOL     OW73413   5.394   4.895   9.324 -0.4724 -0.1272 -0.0380
23991SOL    HW173414   5.369   4.878   9.415  0.1005 -0.8608 -0.0119
23991SOL    HW273415   5.489   4.909   9.327  0.0108 -2.7488 -0.8381
23992SOL     OW73416   4.905   2.103   8.211 -0.2066 -0.3016 -0.2152
23992SOL    HW173417   4.937   2.044   8.279 -0.0429 -1.3790 -1.1938
23992SOL    HW273418   4.869   2.045   8.144 -1.0663  0.7622 -0.7074
23993SOL     OW73419   4.391   6.287   0.596  1.1829 -0.7066 -0.3953
23993SOL    HW173420   4.469   6.342   0.604  0.5991  0.0726  0.1425
23993SOL    HW273421   4.393   6.231   0.674  0.7462 -0.0584  0.0951
23994SOL     OW73422   7.619   4.966   1.828 -0.3483 -0.0000 -0.2155
23994SOL    HW173423   7.687   5.033   1.838 -0.2355  0.0997 -1.4827
23994SOL    HW273424   7.610   4.928   1.915  0.2897  0.9887  0.3008
23995SOL     OW73425   3.935   4.049  12.284 -0.1212 -0.0070  0.2576
23995SOL    HW173426   3.950   4.015  12.196 -0.2038 -0.6484  0.4876
23995SOL    HW273427   3.866   3.994  12.320  1.2341 -1.0137  1.4314
23996SOL     OW73428   2.797   6.578   9.981  0.0300  0.4344  0.0214
23996SOL    HW173429   2.824   6.522   9.908 -0.4344  2.6907 -1.9975
23996SOL    HW273430   2.702   6.584   9.973  0.0067  0.9872  0.5889
23997SOL     OW73431   4.999   7.384   7.297  0.0493  0.5932  0.1397
23997SOL    HW173432   4.977   7.325   7.368 -1.9424  2.1139  0.8740
23997SOL    HW273433   4.917   7.399   7.251  1.1158  0.3564 -1.9752
23998SOL     OW73434   3.153   0.042   8.643  0.4286 -0.1276  0.5395
23998SOL    HW173435   3.199   0.080   8.568  1.1041 -3.1730 -0.7247
23998SOL    HW273436   3.061   0.043   8.618  0.4191  0.7449  0.5820
23999SOL     OW73437   1.415   7.105  10.854  0.4588  0.6492  0.2107
23999SOL    HW173438   1.460   7.130  10.934  1.7090 -2.1041  0.4602
23999SOL    HW273439   1.472   7.042  10.812 -0.8119  0.9521 -2.1907
24000SOL     OW73440   0.998   6.158  12.076 -1.1860  0.0557  0.2069
24000SOL    HW173441   0.969   6.178  11.987  0.1845 -1.4513 -0.6563
24000SOL    HW273442   0.966   6.069  12.092  0.1608 -0.4219  0.4375
24001SOL     OW73443   5.960   3.351   8.427 -0.3007 -0.1568 -0.6047
24001SOL    HW173444   6.046   3.392   8.422  0.0182 -0.7154  0.1139
24001SOL    HW273445   5.963   3.282   8.360 -0.3897  0.1859 -0.9615
24002SOL     OW73446   7.606   0.504  11.128  0.1219 -0.1942  0.6934
24002SOL    HW173447   7.511   0.501  11.122  0.0324  0.0864  1.6841
24002SOL    HW273448   7.632   0.413  11.148  0.0622 -0.2777  0.3850
24003SOL     OW73449   1.515   5.475  11.407  0.0325  0.7169 -0.5663
24003SOL    HW173450   1.609   5.466  11.390  0.3591  0.7508  1.0387
24003SOL    HW273451   1.481   5.385  11.401  0.1796  0.6876 -1.0248
24004SOL     OW73452   4.252   0.145  12.354 -0.2162  0.3398  0.1808
24004SOL    HW173453   4.226   0.150  12.262 -0.8582 -0.7607  0.2796
24004SOL    HW273454   4.241   0.234  12.387 -0.8975  0.5504 -0.5675
24005SOL     OW73455   4.884   1.571   4.714 -0.1973 -1.0272 -0.0239
24005SOL    HW173456   4.859   1.639   4.776 -1.1930 -2.4086  1.1371
24005SOL    HW273457   4.979   1.561   4.727  0.1019  0.5602 -0.7034
24006SOL     OW73458   3.326   3.520   9.039  0.3412  0.2699  0.2625
24006SOL    HW173459   3.383   3.444   9.031  0.4323  0.3653  0.0150
24006SOL    HW273460   3.385   3.592   9.061  0.5030  0.6467 -1.3008
24007SOL     OW73461   0.767   6.123   3.631 -0.3928 -0.6213 -0.2092
24007SOL    HW173462   0.733   6.178   3.701  0.0230 -1.6783  0.8590
24007SOL    HW273463   0.784   6.183   3.559 -0.6970  0.5144  0.6388
24008SOL     OW73464   0.928   7.134   5.681  0.3682 -0.1201 -0.3545
24008SOL    HW173465   0.990   7.199   5.714  0.9118 -0.4984 -0.6069
24008SOL    HW273466   0.979   7.082   5.619  0.0373 -1.0082  0.0992
24009SOL     OW73467   6.606   6.920   2.875 -0.3029  0.0476 -0.0460
24009SOL    HW173468   6.679   6.868   2.841 -1.8840 -2.9491  0.7184
24009SOL    HW273469   6.641   6.961   2.954  1.6113  2.0536 -1.7959
24010SOL     OW73470   7.686   1.658   0.554 -0.5328  0.1308  0.0566
24010SOL    HW173471   7.756   1.643   0.618 -1.3456 -1.6387  0.6009
24010SOL    HW273472   7.607   1.666   0.607 -1.1342 -0.7440 -0.6793
24011SOL     OW73473   2.339   7.374   4.862  0.2010  0.1872 -0.1978
24011SOL    HW173474   2.334   7.367   4.767  1.8044  0.2975 -0.3075
24011SOL    HW273475   2.274   7.312   4.894  0.7141 -0.9877 -1.3556
24012SOL     OW73476   5.076   6.978   4.121 -0.1169 -0.0443  0.0555
24012SOL    HW173477   5.134   6.998   4.048 -0.3053  1.6584  0.3327
24012SOL    HW273478   4.991   6.963   4.081  0.0768 -0.5610 -0.1769
24013SOL     OW73479   3.647   4.556   0.838 -0.1562 -0.6811  0.3101
24013SOL    HW173480   3.590   4.600   0.901 -0.1107 -0.7073  0.3686
24013SOL    HW273481   3.648   4.465   0.866 -0.8688 -0.8761 -0.2536
24014SOL     OW73482   1.398   4.527   7.015 -0.8790 -0.5234  0.6596
24014SOL    HW173483   1.305   4.551   7.015 -1.2593 -1.7563 -1.0297
24014SOL    HW273484   1.399   4.439   6.977  0.9585 -0.6932  1.0215
24015SOL     OW73485   5.207   5.468   0.681  0.0619  0.1990 -0.0577
24015SOL    HW173486   5.238   5.540   0.627 -0.5476  1.4578  1.2049
24015SOL    HW273487   5.233   5.493   0.770 -2.3165  0.0831  0.7299
24016SOL     OW73488   4.585   2.758   4.385 -0.6044  0.1450  0.1869
24016SOL    HW173489   4.489   2.765   4.380 -0.5695  0.4473 -0.1460
24016SOL    HW273490   4.610   2.823   4.452 -0.5881  0.4907 -0.1492
24017SOL     OW73491   1.220   7.318   1.528 -0.7577  0.0190  0.4220
24017SOL    HW173492   1.185   7.250   1.587 -3.2222  1.6188  0.9335
24017SOL    HW273493   1.314   7.319   1.547 -0.9573 -1.8219  1.8753
24018SOL     OW73494   1.661   1.330   1.619 -0.4642 -0.5425  0.7576
24018SOL    HW173495   1.729   1.289   1.672  1.0049 -0.2435 -0.8136
24018SOL    HW273496   1.643   1.267   1.550 -0.3006  0.2220  0.0013
24019SOL     OW73497   0.068   6.043   8.901 -0.3042  0.3239  0.1910
24019SOL    HW173498   0.162   6.045   8.885 -0.6275 -1.6957 -2.7463
24019SOL    HW273499   0.058   5.984   8.976  0.7053 -0.9687 -0.6475
24020SOL     OW73500   3.464   5.511   4.399  0.2073 -0.1047 -0.7082
24020SOL    HW173501   3.404   5.447   4.362  0.0487 -0.2003 -0.2832
24020SOL    HW273502   3.466   5.492   4.493  0.9317 -0.1309 -0.7243
24021SOL     OW73503   5.266   3.384   9.542  0.0121  0.2473  0.0081
24021SOL    HW173504   5.286   3.374   9.449 -1.4978  0.1944 -0.3287
24021SOL    HW273505   5.295   3.473   9.563  0.6472  0.1495 -0.4305
24022SOL     OW73506   1.030   1.930   5.033  0.2796 -0.4731 -0.5393
24022SOL    HW173507   1.054   1.995   4.968 -0.9067 -0.8697 -1.4145
24022SOL    HW273508   0.950   1.890   4.998  1.1602 -2.6363 -0.2130
24023SOL     OW73509   7.493   3.877   5.254  0.0061 -0.4969 -0.3236
24023SOL    HW173510   7.551   3.915   5.187 -1.1499 -0.4343 -1.3193
24023SOL    HW273511   7.414   3.854   5.207 -0.2278 -1.9968  0.7332
24024SOL     OW73512   0.117   1.203   0.487 -0.4167  0.7649  0.3684
24024SOL    HW173513   0.059   1.150   0.542  1.3206 -1.4109  0.2791
24024SOL    HW273514   0.204   1.165   0.503  0.6942  2.6629 -0.9097
24025SOL     OW73515   7.933   7.005   7.606  0.0897 -0.0512 -0.1724
24025SOL    HW173516   7.916   7.096   7.582 -2.1876 -0.1951  0.6814
24025SOL    HW273517   7.939   6.959   7.523  1.0935  0.8106 -0.6091
24026SOL     OW73518   0.925   1.010   5.747  0.3681 -0.4745  0.1747
24026SOL    HW173519   0.854   1.030   5.809  0.0288  0.1387 -0.4035
24026SOL    HW273520   1.003   1.046   5.789  0.0754  0.3003  0.0689
24027SOL     OW73521   5.943   1.152   7.741 -0.5753  0.7057 -0.2736
24027SOL    HW173522   6.004   1.220   7.713  0.6911 -0.7362 -1.1651
24027SOL    HW273523   5.864   1.168   7.688  0.1029  0.8492 -1.2706
24028SOL     OW73524   5.006   0.000   9.979  0.0877 -0.3198  0.2390
24028SOL    HW173525   4.911  -0.011   9.970  0.2165 -0.7209 -0.7489
24028SOL    HW273526   5.029   0.062   9.910  0.2632  1.4655  1.8126
24029SOL     OW73527   1.292   0.636   0.345 -0.6968  0.5563  0.9588
24029SOL    HW173528   1.237   0.569   0.386 -1.7245  1.9476  1.9803
24029SOL    HW273529   1.236   0.713   0.339  0.6955  1.5999  0.6407
24030SOL     OW73530   1.145   5.001   8.963 -0.6252  0.7519  0.5992
24030SOL    HW173531   1.118   5.036   9.048 -1.1179  2.7207 -0.2984
24030SOL    HW273532   1.143   4.906   8.974  1.9208  0.8679  3.5676
24031SOL     OW73533   7.626   2.385  11.407 -0.1891 -0.2313 -0.0283
24031SOL    HW173534   7.651   2.455  11.346 -0.4846  0.2453  0.3886
24031SOL    HW273535   7.570   2.327  11.355  1.8645 -1.4219 -1.0396
24032SOL     OW73536   7.469   5.468   8.965  0.2535  0.6399  0.4369
24032SOL    HW173537   7.515   5.402   8.912 -0.7667  1.8216 -2.0912
24032SOL    HW273538   7.397   5.421   9.005  0.0285  0.0066 -0.6660
24033SOL     OW73539   0.060   6.236   4.486  0.5789 -0.3847 -0.3354
24033SOL    HW173540   0.056   6.329   4.508  0.1439 -0.0443 -1.7224
24033SOL    HW273541   0.116   6.233   4.409 -0.3172 -1.1267 -0.9777
24034SOL     OW73542   2.231   0.757   0.660  0.5224  0.3248 -0.2325
24034SOL    HW173543   2.220   0.848   0.631  0.6684  0.5567  0.4271
24034SOL    HW273544   2.319   0.734   0.632  0.6313  0.5155 -0.0429
24035SOL     OW73545   2.092   1.856   6.015  0.2940  0.1298  0.2467
24035SOL    HW173546   2.097   1.922   6.084 -1.8971  0.7694 -0.1378
24035SOL    HW273547   2.028   1.793   6.047  0.8640 -0.7384 -0.2818
24036SOL     OW73548   2.904   6.949   2.736  0.0965 -0.4443  0.3005
24036SOL    HW173549   2.861   7.005   2.672  1.7962  0.9262  0.2885
24036SOL    HW273550   2.948   6.881   2.684  0.9078  0.2708  0.0277
24037SOL     OW73551   7.253   7.634  11.289 -0.0341 -0.8462 -0.3308
24037SOL    HW173552   7.339   7.598  11.266  1.0777  1.6995 -0.5154
24037SOL    HW273553   7.271   7.694  11.362 -2.0574 -1.9146  1.1629
24038SOL     OW73554   4.937   4.732   0.340  0.2874  0.1891 -0.1021
24038SOL    HW173555   5.003   4.757   0.276  2.1882 -1.0405  1.2723
24038SOL    HW273556   4.984   4.678   0.404 -1.6727  0.7440  1.9441
24039SOL     OW73557   4.912   6.851   9.864  0.0502  0.2170  0.0083
24039SOL    HW173558   4.986   6.841   9.924  1.1385 -0.3952 -1.3863
24039SOL    HW273559   4.840   6.806   9.907  0.6292  0.3253  1.1405
24040SOL     OW73560   5.942   2.510   9.585 -0.6555  0.1151  0.3605
24040SOL    HW173561   5.864   2.554   9.550  0.0629  1.4570  0.3821
24040SOL    HW273562   5.908   2.429   9.625 -1.6448 -0.8702 -2.2830
24041SOL     OW73563   6.359   1.208   8.563 -0.2752 -0.5191 -0.5933
24041SOL    HW173564   6.393   1.120   8.581 -0.0928 -0.3190  0.0444
24041SOL    HW273565   6.308   1.197   8.482 -0.0533 -1.1603 -0.6553
24042SOL     OW73566   5.527   3.479   4.127  0.2574 -0.2433 -0.3070
24042SOL    HW173567   5.537   3.477   4.222  2.6324 -1.5633 -0.5201
24042SOL    HW273568   5.580   3.553   4.098  1.7505 -1.4255 -0.7460
24043SOL     OW73569   0.051   5.881   9.132 -0.7681  0.5875  0.3087
24043SOL    HW173570   0.032   5.889   9.226 -0.9487  0.2057  0.3060
24043SOL    HW273571  -0.023   5.832   9.097  0.0959 -0.7203  0.2593
24044SOL     OW73572   4.336   1.454  10.604  0.3766  0.4662 -0.4711
24044SOL    HW173573   4.311   1.363  10.589  0.8591  0.1644  0.4575
24044SOL    HW273574   4.431   1.451  10.619  0.0502  0.7753  1.9863
24045SOL     OW73575   4.916   1.918   3.801 -0.2187 -0.7733  0.7576
24045SOL    HW173576   4.854   1.963   3.744 -0.4009 -1.4491  0.4150
24045SOL    HW273577   5.001   1.951   3.774 -0.3874 -0.2255  0.8807
24046SOL     OW73578   3.797   1.993  10.173 -0.0885  0.1655 -0.3315
24046SOL    HW173579   3.753   1.911  10.196 -0.7543  0.3556 -0.8971
24046SOL    HW273580   3.756   2.020  10.091  0.5710  0.7379 -0.4772
24047SOL     OW73581   0.994   1.600   6.004  0.1733 -0.2656  0.3200
24047SOL    HW173582   0.974   1.570   6.093 -0.0318 -1.5050 -0.1153
24047SOL    HW273583   0.970   1.693   6.004 -0.7821 -0.4829  1.2774
24048SOL     OW73584   2.556   1.543   1.060  0.0637 -0.7541  0.1154
24048SOL    HW173585   2.565   1.619   1.002 -2.5297  0.7637  1.5131
24048SOL    HW273586   2.579   1.577   1.147 -2.3730 -1.1389  0.9814
24049SOL     OW73587   4.591   7.339   4.850  0.1361  0.3295 -0.0431
24049SOL    HW173588   4.543   7.353   4.768 -0.3271  3.5758  0.6612
24049SOL    HW273589   4.678   7.375   4.834  0.1054  0.8051  0.7925
24050SOL     OW73590   5.196   5.500   4.279  0.1291  0.5634 -0.1891
24050SOL    HW173591   5.115   5.461   4.311  0.9573 -0.8499  0.3038
24050SOL    HW273592   5.231   5.434   4.218  2.0044  0.0689  1.3177
24051SOL     OW73593   3.354   1.633   8.994 -0.0558  0.1051  0.6774
24051SOL    HW173594   3.307   1.707   9.033 -1.5582  0.5187 -1.7101
24051SOL    HW273595   3.285   1.577   8.958  1.1716 -0.2280 -1.3199
24052SOL     OW73596   2.163   1.712  11.801 -0.1643 -0.1380  0.0052
24052SOL    HW173597   2.128   1.798  11.824 -0.3738 -0.4108  0.7507
24052SOL    HW273598   2.104   1.679  11.733 -0.6352 -0.0782  0.3805
24053SOL     OW73599   3.985   1.907   0.116 -0.1892  0.0685  0.5313
24053SOL    HW173600   4.070   1.899   0.074  0.0338 -0.0492  0.9956
24053SOL    HW273601   3.938   1.972   0.064  0.5924  0.9820  0.9328
24054SOL     OW73602   7.422   6.763  10.589 -0.4629  0.1341  0.2165
24054SOL    HW173603   7.485   6.775  10.517 -1.4171 -1.2894 -0.9141
24054SOL    HW273604   7.372   6.685  10.564 -0.3263 -0.8969  2.8213
24055SOL     OW73605   6.794   4.687   7.707 -0.1341 -0.0884  0.5216
24055SOL    HW173606   6.708   4.656   7.676  0.1290 -1.1390  0.7996
24055SOL    HW273607   6.838   4.716   7.627 -0.2324 -0.8477  0.1804
24056SOL     OW73608   4.390   6.933  10.657 -0.0799 -0.2985 -0.5153
24056SOL    HW173609   4.369   6.954  10.566 -2.7786  2.6421  0.5945
24056SOL    HW273610   4.447   7.004  10.686  0.4747 -1.0213  0.2062
24057SOL     OW73611   1.328   7.234   1.858  0.3985 -0.3016  0.8786
24057SOL    HW173612   1.344   7.327   1.847  2.7195 -0.6866  0.4418
24057SOL    HW273613   1.414   7.196   1.874 -0.6550 -2.1992  2.5982
24058SOL     OW73614   4.995   7.063   5.594 -0.1279  0.3116 -0.5048
24058SOL    HW173615   4.918   7.091   5.644 -1.1406 -0.8089 -1.3635
24058SOL    HW273616   5.060   7.043   5.660 -0.4946  1.4467  0.2429
24059SOL     OW73617   0.774   7.923   7.833 -0.3462 -0.0719 -0.5469
24059SOL    HW173618   0.807   7.903   7.920 -1.8475  0.3938  0.1466
24059SOL    HW273619   0.806   8.012   7.815  0.9347 -0.5922 -0.9850
24060SOL     OW73620   4.405   1.001  11.060  0.2665 -0.0604 -0.5960
24060SOL    HW173621   4.342   1.037  11.122  2.3840  4.0971 -0.5389
24060SOL    HW273622   4.447   0.928  11.106  1.9887  3.0190  3.1864
24061SOL     OW73623   5.044   7.035   9.206 -0.2445  0.1382 -0.6153
24061SOL    HW173624   5.000   7.110   9.246  0.6788  0.9498 -1.0699
24061SOL    HW273625   4.973   6.975   9.183 -1.0605  1.1154 -0.7332
24062SOL     OW73626   3.088   1.023  11.827 -0.8397 -0.4436 -0.4572
24062SOL    HW173627   3.023   1.053  11.763 -1.8454 -0.0439  0.7140
24062SOL    HW273628   3.149   0.969  11.776 -2.0954 -0.8476 -1.5969
24063SOL     OW73629   1.651   3.090   7.509 -0.3288  0.0356  0.2232
24063SOL    HW173630   1.699   3.008   7.501 -0.5607 -0.1065  0.2908
24063SOL    HW273631   1.696   3.138   7.578 -0.8153 -0.4730  0.9093
24064SOL     OW73632   7.429   0.312  11.285  0.0900  0.2329  0.1397
24064SOL    HW173633   7.413   0.257  11.208 -1.5624 -0.4336  0.9047
24064SOL    HW273634   7.383   0.394  11.266 -1.8530 -0.5788  1.0960
24065SOL     OW73635   1.123   4.265   4.027  0.4207 -0.2633 -0.3586
24065SOL    HW173636   1.031   4.283   4.046  0.6370  0.8451 -0.3033
24065SOL    HW273637   1.137   4.298   3.939  0.4110 -1.8304 -0.9910
24066SOL     OW73638   7.324   5.679   8.262  0.7526 -0.2193  0.4278
24066SOL    HW173639   7.244   5.627   8.273 -0.0570  0.9033 -0.0083
24066SOL    HW273640   7.382   5.623   8.210 -0.2958 -0.4987 -0.4676
24067SOL     OW73641   5.856   6.217   0.029  0.2416 -0.6015 -0.2996
24067SOL    HW173642   5.860   6.309   0.055  0.9740 -0.9363  0.8562
24067SOL    HW273643   5.772   6.208  -0.015 -0.1684  0.4627  0.2353
24068SOL     OW73644   6.935   6.808   9.771 -0.0051 -0.1890  0.0942
24068SOL    HW173645   6.867   6.858   9.727 -1.2810 -0.3213  1.7957
24068SOL    HW273646   6.943   6.848   9.857  1.4809 -0.7236  0.2433
24069SOL     OW73647   0.776   1.529  10.138 -0.7805  0.0058 -0.0543
24069SOL    HW173648   0.724   1.532  10.218 -0.0191  0.0432  0.4523
24069SOL    HW273649   0.859   1.490  10.165 -0.3417  0.4469 -0.7223
24070SOL     OW73650   7.413   0.608   2.401 -0.0204 -0.4127 -0.0172
24070SOL    HW173651   7.326   0.628   2.437 -0.2566  0.8083 -1.1868
24070SOL    HW273652   7.438   0.687   2.354  0.7980 -1.5247 -1.5293
24071SOL     OW73653   7.235   5.319   1.635  0.3205 -0.0325 -0.1390
24071SOL    HW173654   7.314   5.270   1.658 -1.0084 -2.9125 -1.1396
24071SOL    HW273655   7.250   5.346   1.545  0.9015  1.1425  0.2918
24072SOL     OW73656   1.705   1.582  10.676 -0.0062 -0.2019 -0.1407
24072SOL    HW173657   1.687   1.576  10.770  2.5493 -3.4183  0.3267
24072SOL    HW273658   1.781   1.640  10.670 -1.2648  1.5143 -0.5484
24073SOL     OW73659   7.524   2.900  12.155 -0.3503 -0.1344 -0.1462
24073SOL    HW173660   7.457   2.851  12.202 -0.3040  0.3092  0.3919
24073SOL    HW273661   7.606   2.854  12.175 -0.2405  0.4364  0.7561
24074SOL     OW73662   5.759   2.013   7.718  0.7123  0.0608  0.7142
24074SOL    HW173663   5.737   1.946   7.653 -0.0305  1.2164 -0.2708
24074SOL    HW273664   5.837   1.980   7.761  0.9238 -0.9964 -0.4246
24075SOL     OW73665   3.245   3.107   3.287  0.2238  0.3145 -0.3369
24075SOL    HW173666   3.166   3.145   3.247 -0.8393 -0.7817  0.6455
24075SOL    HW273667   3.217   3.079   3.374  1.8977  0.5270  0.3006
24076SOL     OW73668   3.698   7.775   7.522 -0.0769  0.0367 -0.0994
24076SOL    HW173669   3.622   7.832   7.506  1.8339  3.1285  0.9107
24076SOL    HW273670   3.728   7.749   7.435 -0.5782  1.2697 -0.6676
24077SOL     OW73671   2.175   7.645   3.398  0.2746 -0.5105 -0.3488
24077SOL    HW173672   2.259   7.627   3.440 -0.8780 -1.8258  1.5862
24077SOL    HW273673   2.138   7.717   3.449  0.8400  1.1980 -2.2092
24078SOL     OW73674   6.968   2.386   4.053 -0.2640 -0.1415  0.2316
24078SOL    HW173675   7.016   2.309   4.082 -2.1301 -1.9106 -1.0454
24078SOL    HW273676   7.033   2.439   4.007  0.7551 -1.7766 -0.3102
24079SOL     OW73677   5.980   0.275   5.961 -0.4989  0.3823  0.4384
24079SOL    HW173678   5.947   0.335   6.027 -1.3100  1.4356 -0.8850
24079SOL    HW273679   5.953   0.313   5.877 -0.1646 -1.3018 -0.4846
24080SOL     OW73680   2.768   5.831   5.453 -0.1820 -0.2573  0.3053
24080SOL    HW173681   2.676   5.853   5.462 -0.1129  0.2667 -0.2016
24080SOL    HW273682   2.814   5.898   5.504  0.0552  1.1169 -1.6240
24081SOL     OW73683   5.680   6.363   2.270  0.2252  0.3523 -0.3988
24081SOL    HW173684   5.646   6.414   2.196  0.4038  0.6277 -0.2926
24081SOL    HW273685   5.603   6.344   2.324 -0.0413 -0.5593 -1.0727
24082SOL     OW73686   6.201   5.915   5.418 -0.0852 -0.3730 -0.0817
24082SOL    HW173687   6.174   5.823   5.415 -0.0370 -0.3967  0.2373
24082SOL    HW273688   6.273   5.921   5.355  2.3386 -1.3393  2.4129
24083SOL     OW73689   2.724   4.371   0.132 -0.0230 -1.0276  0.1388
24083SOL    HW173690   2.800   4.354   0.077  0.3435 -0.5504  0.4873
24083SOL    HW273691   2.749   4.338   0.219  0.9268  1.6155  0.9748
24084SOL     OW73692   1.830   2.573   3.337  0.2752 -0.4116  0.5653
24084SOL    HW173693   1.921   2.592   3.360  0.1890  0.3154  0.3402
24084SOL    HW273694   1.794   2.531   3.414  0.7139 -0.4065  0.7771
24085SOL     OW73695   2.843   4.414   2.055 -0.2840 -0.2390 -0.0890
24085SOL    HW173696   2.870   4.370   1.975  0.2147  0.5333 -0.3578
24085SOL    HW273697   2.798   4.493   2.025 -0.9567 -0.4280  0.3858
24086SOL     OW73698   5.798   2.929   4.404  0.1467 -0.1716  0.1514
24086SOL    HW173699   5.837   3.000   4.455  0.5367 -1.3922  1.6365
24086SOL    HW273700   5.707   2.926   4.433 -0.0803  0.2013 -0.4914
24087SOL     OW73701   7.742   0.675   6.441  0.1283 -0.5733  0.2250
24087SOL    HW173702   7.788   0.600   6.477  2.0898  0.5325  0.1623
24087SOL    HW273703   7.801   0.710   6.374 -1.9666 -0.6008 -1.7758
24088SOL     OW73704   4.108   7.350   7.904  0.3569  0.2856 -0.0061
24088SOL    HW173705   4.042   7.340   7.973 -0.1086 -0.4106 -0.5355
24088SOL    HW273706   4.181   7.294   7.932  0.1046 -0.1186 -0.1490
24089SOL     OW73707   3.165   6.806  12.337 -0.2508 -0.0240  0.2464
24089SOL    HW173708   3.133   6.882  12.288 -1.0806 -0.4211  0.1546
24089SOL    HW273709   3.089   6.748  12.343 -1.0051  1.0844  4.1672
24090SOL     OW73710   0.321   0.622   5.470  0.3210  0.1021  0.0143
24090SOL    HW173711   0.368   0.607   5.388 -0.8059  2.0371 -1.0755
24090SOL    HW273712   0.239   0.574   5.459 -0.6154  1.7910 -0.8412
24091SOL     OW73713   1.046   6.838   9.049  0.6844 -0.2195  0.6970
24091SOL    HW173714   1.046   6.859   9.143  0.1153  0.8831  0.4738
24091SOL    HW273715   0.978   6.771   9.039 -0.9175  1.3112  0.7768
24092SOL     OW73716   3.912   6.248  10.341  0.7692 -0.6553  0.2287
24092SOL    HW173717   3.937   6.156  10.334  1.6277 -0.3526 -1.1651
24092SOL    HW273718   3.973   6.294  10.282 -0.4769  0.6444 -0.1042
24093SOL     OW73719   5.979   5.300   4.140  0.7857 -0.2440  0.1432
24093SOL    HW173720   5.955   5.318   4.049 -1.1637 -0.2641  0.6115
24093SOL    HW273721   5.919   5.231   4.168  2.3813 -1.3205  1.0035
24094SOL     OW73722   1.495   4.893   3.246  0.3257 -0.1054  0.6683
24094SOL    HW173723   1.569   4.954   3.253 -1.0794  1.7641 -0.1467
24094SOL    HW273724   1.425   4.934   3.296 -0.5006 -1.3617  0.5930
24095SOL     OW73725   2.518   5.015   5.021  0.3108  0.2929  0.0125
24095SOL    HW173726   2.471   4.945   4.977  1.4030 -1.9612  2.1635
24095SOL    HW273727   2.473   5.095   4.996 -1.2314 -1.1951 -2.2686
24096SOL     OW73728   2.395   6.927   3.103  0.1179  0.0796 -0.1335
24096SOL    HW173729   2.367   6.921   3.012 -2.4929 -0.4811  0.6396
24096SOL    HW273730   2.321   6.894   3.154  0.7230  2.1859  2.3220
24097SOL     OW73731   7.159   6.357   4.812 -0.0031 -0.4790 -0.2265
24097SOL    HW173732   7.205   6.391   4.735  2.5904 -0.0491  1.4276
24097SOL    HW273733   7.203   6.275   4.833  0.3600  0.1703  1.6913
24098SOL     OW73734   0.141   4.522   2.233 -0.0492 -0.1073  0.0662
24098SOL    HW173735   0.132   4.457   2.164  2.1280 -1.2841  0.7830
24098SOL    HW273736   0.053   4.535   2.266 -1.0148 -0.1944 -2.2818
24099SOL     OW73737   0.985   0.769   7.942  0.1556 -0.6071 -0.5583
24099SOL    HW173738   0.987   0.744   8.034  0.8994 -0.7758 -0.6141
24099SOL    HW273739   0.927   0.705   7.900  2.9211 -3.0381 -0.9058
24100SOL     OW73740   2.160   4.276   1.830  0.2663  0.3844 -0.2196
24100SOL    HW173741   2.205   4.360   1.840 -0.0912  0.5599 -0.0776
24100SOL    HW273742   2.106   4.287   1.752  0.9492 -0.0418 -0.7496
24101SOL     OW73743   7.968   3.215  12.378 -0.1969 -0.3315  0.4470
24101SOL    HW173744   8.027   3.273  12.426 -2.1262  0.4953  1.9562
24101SOL    HW273745   7.924   3.164  12.446 -2.0467 -0.0787 -0.5060
24102SOL     OW73746   2.122   2.759   8.460  0.3166 -0.0092  0.0457
24102SOL    HW173747   2.178   2.681   8.464  0.6605  0.2762  1.9433
24102SOL    HW273748   2.175   2.827   8.502 -1.2159  0.3936  1.4228
24103SOL     OW73749   2.054   0.070   7.097 -0.2359  0.2198 -0.0274
24103SOL    HW173750   2.130   0.096   7.149 -0.3704 -0.2470  0.4106
24103SOL    HW273751   2.006   0.009   7.153 -0.9146  0.4768 -0.3157
24104SOL     OW73752   7.873   4.129   4.946  0.4231 -0.0431  0.2392
24104SOL    HW173753   7.826   4.193   4.999 -0.0040 -0.2589  0.1274
24104SOL    HW273754   7.959   4.168   4.931 -0.1896  0.9842 -0.7184
24105SOL     OW73755   3.004   1.172   4.944 -0.1842  0.8446  0.1384
24105SOL    HW173756   3.006   1.132   5.031  0.6647  0.1846 -0.1861
24105SOL    HW273757   2.936   1.124   4.897 -0.8251  1.3719  0.5079
24106SOL     OW73758   2.445   1.433   6.456  0.3184 -0.2112 -0.4121
24106SOL    HW173759   2.510   1.421   6.387  0.5220  0.7996 -0.4112
24106SOL    HW273760   2.361   1.425   6.411  0.4281 -1.4111 -0.4335
24107SOL     OW73761   2.152   3.143   9.810  0.4472  0.3445 -0.6111
24107SOL    HW173762   2.239   3.180   9.829 -0.4379  2.9466 -1.1282
24107SOL    HW273763   2.104   3.154   9.892  0.3154 -0.1730 -0.6178
24108SOL     OW73764   6.778   0.898  10.578 -0.3436  0.1771 -0.3465
24108SOL    HW173765   6.788   0.988  10.611 -2.0478 -0.3819  1.9699
24108SOL    HW273766   6.737   0.908  10.492 -1.9593  1.6259  0.5320
24109SOL     OW73767   1.498   4.285   2.309 -0.1750  0.5333 -0.3801
24109SOL    HW173768   1.457   4.268   2.224 -0.7197 -1.8491  0.3007
24109SOL    HW273769   1.590   4.299   2.288 -0.4777  1.0690 -1.4513
24110SOL     OW73770   4.894   0.565   1.816 -0.7283  0.3996 -0.7321
24110SOL    HW173771   4.899   0.650   1.860  0.5031 -0.5898  1.1975
24110SOL    HW273772   4.984   0.547   1.789 -1.0925 -0.0346 -1.6981
24111SOL     OW73773   7.486   2.080   8.438  0.3469  0.2093 -0.3186
24111SOL    HW173774   7.449   2.122   8.516  1.9561 -0.7332  1.0235
24111SOL    HW273775   7.433   2.002   8.426  0.4408  0.0682  0.1732
24112SOL     OW73776   0.379   4.882   8.362 -0.2488 -0.2452  0.5215
24112SOL    HW173777   0.299   4.884   8.309  0.3095 -2.8226 -0.5792
24112SOL    HW273778   0.447   4.851   8.302  1.3225  0.6365  1.7694
24113SOL     OW73779   1.789   6.756   6.034 -0.4765 -0.1091  0.5323
24113SOL    HW173780   1.780   6.839   6.082  1.8366  0.0459  0.7827
24113SOL    HW273781   1.801   6.690   6.102  1.1626 -0.1245  0.2629
24114SOL     OW73782   6.034   0.953   2.729 -0.0705  0.4800 -0.0881
24114SOL    HW173783   6.067   0.872   2.691 -1.5440 -0.1220 -0.1447
24114SOL    HW273784   6.016   0.931   2.820 -1.2020  0.5157 -0.2950
24115SOL     OW73785   1.832   0.467   0.325  0.1982 -0.7035  0.0428
24115SOL    HW173786   1.754   0.414   0.308 -0.1889  0.0212 -0.5071
24115SOL    HW273787   1.803   0.533   0.387  0.2678 -0.2091 -0.4410
24116SOL     OW73788   2.344   2.750   2.216  1.1929 -0.5353 -0.1702
24116SOL    HW173789   2.349   2.664   2.257  0.5877 -1.0829 -1.2308
24116SOL    HW273790   2.422   2.755   2.161  0.5244 -0.9838 -1.1849
24117SOL     OW73791   2.302   0.470   7.344  0.0297 -0.4264  0.1450
24117SOL    HW173792   2.353   0.388   7.346 -1.2745 -1.2538  0.3476
24117SOL    HW273793   2.244   0.464   7.420  0.5402  1.1182  0.6797
24118SOL     OW73794   1.181   3.563   6.724 -0.4947 -0.2992  0.1701
24118SOL    HW173795   1.105   3.569   6.783  0.6275  0.1157  1.6523
24118SOL    HW273796   1.256   3.557   6.784  0.6662 -0.3759 -1.2537
24119SOL     OW73797   3.592   7.517   0.287  0.2057  0.0219 -0.1271
24119SOL    HW173798   3.579   7.611   0.301  1.8520  0.3773 -0.7817
24119SOL    HW273799   3.613   7.509   0.194 -1.6192 -1.2249 -0.4772
24120SOL     OW73800   1.642   6.879  10.055  0.2438 -0.1192 -0.3924
24120SOL    HW173801   1.685   6.795  10.065  0.3637 -0.0734 -0.5234
24120SOL    HW273802   1.666   6.929  10.133  1.7022  0.4738 -1.1740
24121SOL     OW73803   6.109   0.958   6.313  0.1803 -0.2224  0.2122
24121SOL    HW173804   6.167   1.021   6.271 -0.0433 -1.1056 -1.5485
24121SOL    HW273805   6.166   0.884   6.335 -0.0880 -0.7539 -0.7839
24122SOL     OW73806   5.628   1.516   7.900  0.2610 -0.1003 -0.1612
24122SOL    HW173807   5.605   1.446   7.960 -2.3061  0.2644 -0.5816
24122SOL    HW273808   5.629   1.475   7.814  0.5622  0.0340 -0.2237
24123SOL     OW73809   6.226   5.105   1.079 -0.3154 -0.3059  0.6879
24123SOL    HW173810   6.280   5.073   1.152 -1.6349 -1.5089  1.1914
24123SOL    HW273811   6.289   5.134   1.014  0.9406 -1.0894  1.5033
24124SOL     OW73812   7.368   0.957   2.244 -0.7617  0.3695 -0.7410
24124SOL    HW173813   7.350   1.028   2.182 -2.3811  0.1576 -0.5744
24124SOL    HW273814   7.281   0.923   2.267 -0.0695 -1.0966 -0.1452
24125SOL     OW73815   7.062   5.160   9.998  0.2516 -0.0863  0.2981
24125SOL    HW173816   7.043   5.134  10.087  2.1308  1.0816  1.1233
24125SOL    HW273817   7.079   5.254  10.004  0.2660  0.0466 -1.3226
24126SOL     OW73818   4.421   3.031   0.770 -0.0501 -0.3535  0.0959
24126SOL    HW173819   4.398   3.113   0.815 -0.2586  0.8269 -2.0186
24126SOL    HW273820   4.362   3.029   0.694 -0.2244 -2.6276  0.2506
24127SOL     OW73821   7.616   0.910  12.061  0.2369 -0.0679  0.4673
24127SOL    HW173822   7.615   1.005  12.052 -0.8398 -0.1666 -0.7397
24127SOL    HW273823   7.524   0.885  12.067  0.3953 -1.1555 -1.1059
24128SOL     OW73824   2.693   7.935   0.873  0.0743 -0.4017  0.2229
24128SOL    HW173825   2.745   7.989   0.814  0.9857 -0.8446  0.6037
24128SOL    HW273826   2.744   7.854   0.883 -0.8027 -0.9510  0.4138
24129SOL     OW73827   5.725   4.685   1.839 -0.5054  0.0916 -0.0888
24129SOL    HW173828   5.789   4.742   1.882 -1.2044 -0.1863  1.3992
24129SOL    HW273829   5.730   4.709   1.747  1.8218 -0.0054 -0.0694
24130SOL     OW73830   2.951   4.916   0.052  0.1245  0.0137  0.3601
24130SOL    HW173831   2.942   4.859   0.128 -0.1753  0.9610  1.0472
24130SOL    HW273832   2.949   4.856  -0.023 -1.6437 -0.7553  0.9771
24131SOL     OW73833   7.768   4.692   9.007  0.1909 -0.5413  0.1658
24131SOL    HW173834   7.842   4.691   9.067  0.5321 -1.2772 -0.2520
24131SOL    HW273835   7.763   4.782   8.976  0.7044 -0.4119  0.4496
24132SOL     OW73836   0.482   7.083  11.271 -0.3019  0.1764  0.4335
24132SOL    HW173837   0.429   7.030  11.211 -1.3636 -0.4287  1.8412
24132SOL    HW273838   0.428   7.160  11.289  1.2455  1.8454 -1.6254
24133SOL     OW73839   2.059   7.887  10.963 -0.3734  0.0415  0.0843
24133SOL    HW173840   1.968   7.860  10.976 -0.0793 -0.3257  1.5961
24133SOL    HW273841   2.065   7.974  11.003 -0.2210  0.3908 -0.6717
24134SOL     OW73842   3.675   5.934   5.139 -0.0516  0.1518  0.3335
24134SOL    HW173843   3.692   5.966   5.051  0.1127 -1.2880 -0.1941
24134SOL    HW273844   3.597   5.982   5.168 -1.2419 -0.6590 -1.3388
24135SOL     OW73845   6.904   5.020   7.897 -0.3723 -0.3517  0.4934
24135SOL    HW173846   6.890   4.935   7.939  0.4422 -0.4767  0.5229
24135SOL    HW273847   6.945   5.073   7.966  2.1467 -0.9306 -0.4536
24136SOL     OW73848   3.037   3.452   7.043 -0.1796  0.4651 -0.0179
24136SOL    HW173849   3.055   3.386   6.976  2.9076  1.3496 -0.1906
24136SOL    HW273850   3.077   3.532   7.010 -1.5568  1.8045  1.3794
24137SOL     OW73851   6.612   0.716   7.995  0.1704  0.0685 -0.4441
24137SOL    HW173852   6.701   0.717   7.959  0.4843 -0.3754  0.2913
24137SOL    HW273853   6.614   0.781   8.066 -0.1233  0.1336 -0.4950
24138SOL     OW73854   3.030   0.509  10.429  0.4421  0.1514  0.4240
24138SOL    HW173855   2.965   0.485  10.363  0.6451 -3.1573  1.2360
24138SOL    HW273856   3.109   0.527  10.379  0.5078 -1.9835 -0.3542
24139SOL     OW73857   0.123   3.588  12.182  0.5670  0.3599 -0.1269
24139SOL    HW173858   0.119   3.592  12.087  0.2337  0.3359 -0.1126
24139SOL    HW273859   0.048   3.535  12.208  0.1084  1.1467  0.2021
24140SOL     OW73860   1.676   4.265   4.503 -0.0207 -0.3778  0.0319
24140SOL    HW173861   1.749   4.251   4.442 -0.8753 -1.3775 -0.8073
24140SOL    HW273862   1.620   4.328   4.458 -0.4091 -0.7470 -0.0135
24141SOL     OW73863   3.577   5.663   6.097  0.4003 -0.1187 -0.2130
24141SOL    HW173864   3.621   5.644   6.180  0.8597  0.2947 -0.3550
24141SOL    HW273865   3.649   5.684   6.037 -0.0201  1.3142 -0.2590
24142SOL     OW73866   2.424   3.013   1.330 -0.1981 -0.0189 -0.2160
24142SOL    HW173867   2.483   2.957   1.281  0.8522  0.1540  0.7939
24142SOL    HW273868   2.381   2.955   1.393  1.5110  0.3809  1.3998
24143SOL     OW73869   7.346   4.104   0.909  0.0803  0.2458  0.3545
24143SOL    HW173870   7.358   4.181   0.964 -0.3261  0.4991  0.0987
24143SOL    HW273871   7.419   4.107   0.847 -0.1729  0.6691  0.0712
24144SOL     OW73872   6.692   6.843   2.156  0.2602  0.3140  0.3120
24144SOL    HW173873   6.743   6.876   2.230  0.0321 -0.4825  0.8424
24144SOL    HW273874   6.745   6.770   2.122  0.5303  0.8912 -0.5343
24145SOL     OW73875   4.340   7.578   2.725  0.3911  0.2044 -0.2381
24145SOL    HW173876   4.354   7.489   2.757  1.4028 -0.4572 -2.3246
24145SOL    HW273877   4.333   7.631   2.804 -0.2503 -1.6979  1.0693
24146SOL     OW73878   4.589   6.928   5.935 -0.0052 -0.1561  0.6632
24146SOL    HW173879   4.527   6.983   5.983  0.2978 -0.2076  1.1209
24146SOL    HW273880   4.588   6.844   5.981 -2.1996 -1.3783 -1.3767
24147SOL     OW73881   0.316   0.934   5.928 -0.0760  0.0091 -0.1315
24147SOL    HW173882   0.286   0.920   5.838  0.4367 -2.3554 -0.0024
24147SOL    HW273883   0.402   0.975   5.918  0.4092 -1.1134 -0.7837
24148SOL     OW73884   4.637   7.840  11.888  0.1090 -0.3139  0.1927
24148SOL    HW173885   4.731   7.829  11.900  0.0059 -0.7504  0.6336
24148SOL    HW273886   4.627   7.864  11.796  0.6679 -0.0262  0.2050
24149SOL     OW73887   0.239   6.641   7.046 -0.2750 -0.4371 -0.1575
24149SOL    HW173888   0.314   6.666   7.100 -0.7636 -2.2399  1.4934
24149SOL    HW273889   0.175   6.607   7.108 -1.8301 -0.4463 -1.6868
24150SOL     OW73890   3.946   6.756   0.250  0.2727  0.0828  0.4463
24150SOL    HW173891   3.921   6.813   0.177 -1.1350 -1.7085 -0.5418
24150SOL    HW273892   3.898   6.791   0.325 -0.9698 -0.0739 -0.2534
24151SOL     OW73893   3.169   6.055  12.057 -0.1589 -0.4657 -0.4583
24151SOL    HW173894   3.159   5.961  12.039  0.2070 -0.6446  0.2445
24151SOL    HW273895   3.158   6.097  11.971  0.8584 -1.2378 -0.9876
24152SOL     OW73896   6.012   5.749   0.912  0.1334 -0.2612  0.5462
24152SOL    HW173897   6.059   5.815   0.963 -1.3661 -0.7469  2.6921
24152SOL    HW273898   5.941   5.720   0.970 -0.3616 -2.4384 -1.0222
24153SOL     OW73899   5.561   7.084   2.756  0.1711 -0.0651  0.0453
24153SOL    HW173900   5.623   7.082   2.829  0.1826 -0.6080  0.0191
24153SOL    HW273901   5.497   7.016   2.775  1.6981 -2.1397 -1.7570
24154SOL     OW73902   3.509   3.164  10.360  0.0276 -0.2245 -0.5447
24154SOL    HW173903   3.543   3.090  10.309 -1.1338 -1.1895  0.0132
24154SOL    HW273904   3.586   3.203  10.401  0.5384 -2.2577  0.5748
24155SOL     OW73905   2.361   0.150   8.611 -0.3079  0.1401 -0.2258
24155SOL    HW173906   2.266   0.143   8.611 -0.2562 -1.0101  0.8433
24155SOL    HW273907   2.391   0.062   8.589  0.5305  0.8730 -2.1953
24156SOL     OW73908   7.720   4.087   3.509  0.4092 -0.0399 -0.9211
24156SOL    HW173909   7.774   4.089   3.588 -0.1586  0.3423 -0.5369
24156SOL    HW273910   7.772   4.039   3.445  0.8195 -0.4584 -0.2729
24157SOL     OW73911   2.460   4.647  10.634 -0.7570 -0.1929  0.4754
24157SOL    HW173912   2.376   4.692  10.629  0.1154  1.4026 -1.1308
24157SOL    HW273913   2.464   4.594  10.554  0.8930  2.0014 -1.0042
24158SOL     OW73914   3.570   3.741   1.138  0.2204 -0.1988  0.0537
24158SOL    HW173915   3.476   3.727   1.147  0.0306  0.5729 -0.6830
24158SOL    HW273916   3.579   3.832   1.112  1.1821 -0.2383  0.2106
24159SOL     OW73917   6.476   2.451   2.869 -0.0195 -0.3399 -0.0138
24159SOL    HW173918   6.447   2.538   2.897  0.5400  0.0962 -0.7474
24159SOL    HW273919   6.542   2.468   2.802  0.3398 -1.3309  0.0681
24160SOL     OW73920   0.760   6.290   3.418 -0.7387  0.4790 -0.1207
24160SOL    HW173921   0.736   6.356   3.484  0.8425 -0.5820  1.5933
24160SOL    HW273922   0.853   6.304   3.403 -0.2276 -1.7312  0.7423
24161SOL     OW73923   5.779   0.476  12.462 -0.2184  0.1847 -0.3952
24161SOL    HW173924   5.683   0.480  12.460 -0.2503  0.4004  0.7195
24161SOL    HW273925   5.805   0.474  12.370 -1.2471  1.4013 -0.7478
24162SOL     OW73926   4.918   6.113   9.990  0.0498 -0.5462 -0.3992
24162SOL    HW173927   4.938   6.124   9.897 -1.7079 -0.2315 -0.7791
24162SOL    HW273928   4.822   6.110   9.993  0.0198  0.9587  1.5597
24163SOL     OW73929   4.832   6.233  10.801  0.0762 -0.2318 -0.3318
24163SOL    HW173930   4.872   6.212  10.885  1.8915  1.1414 -0.7948
24163SOL    HW273931   4.773   6.306  10.819  2.2410  1.6933 -0.5423
24164SOL     OW73932   6.772   5.287  10.206 -0.0280  0.3962  0.0818
24164SOL    HW173933   6.742   5.378  10.206 -0.5083  0.2390  0.6894
24164SOL    HW273934   6.709   5.241  10.150  0.3486  0.4763 -0.4149
24165SOL     OW73935   0.425   4.548  10.166 -0.5629  0.1938 -0.4089
24165SOL    HW173936   0.426   4.468  10.218 -0.5956 -0.3105 -1.1613
24165SOL    HW273937   0.419   4.619  10.230 -1.7781 -0.4530  0.2098
24166SOL     OW73938   7.155   4.548   4.161 -0.4344 -0.0667  0.0641
24166SOL    HW173939   7.138   4.640   4.140  0.5303  0.0123 -0.4184
24166SOL    HW273940   7.088   4.526   4.225 -0.9054  0.8699 -0.0797
24167SOL     OW73941   1.712   0.657   3.199  0.0680  0.6994  0.4552
24167SOL    HW173942   1.774   0.690   3.264 -0.3296  0.5312  0.9192
24167SOL    HW273943   1.739   0.699   3.117 -0.6163  2.4724  1.0822
24168SOL     OW73944   5.956   1.196   2.687  0.1171 -0.6112  0.5692
24168SOL    HW173945   5.991   1.198   2.598  1.8705  1.4149  1.2111
24168SOL    HW273946   5.960   1.104   2.712 -0.3256 -1.2140 -1.3665
24169SOL     OW73947   6.754   2.281   7.133 -0.6896 -0.0244 -0.6340
24169SOL    HW173948   6.845   2.252   7.126 -0.8075 -0.5404 -0.1260
24169SOL    HW273949   6.703   2.201   7.124 -0.9969 -0.1382  1.4999
24170SOL     OW73950   3.774   5.990   5.505 -0.6789 -0.3350  0.5555
24170SOL    HW173951   3.763   6.084   5.490  1.8937  0.1208  1.0345
24170SOL    HW273952   3.743   5.949   5.425  0.0046  1.0811 -0.4704
24171SOL     OW73953   6.922   6.578   9.613 -0.0640  0.0737 -0.1406
24171SOL    HW173954   6.907   6.654   9.669  0.1838  0.8902 -1.1370
24171SOL    HW273955   6.967   6.614   9.536 -2.1939 -0.6390 -1.8264
24172SOL     OW73956   3.793   4.264  12.410 -0.1011 -0.9173 -0.3075
24172SOL    HW173957   3.835   4.188  12.370  0.1034 -1.2415  0.5175
24172SOL    HW273958   3.738   4.299  12.340 -0.9791 -2.4108 -0.4239
24173SOL     OW73959   1.238   2.021   7.368 -0.4487 -0.3901  0.0114
24173SOL    HW173960   1.291   1.997   7.292 -1.2133  0.2879 -0.7553
24173SOL    HW273961   1.147   2.019   7.336 -0.9272 -1.6723  1.3314
24174SOL     OW73962   7.168   1.577   7.290 -0.6361 -0.1758 -0.0049
24174SOL    HW173963   7.176   1.655   7.235  0.6889  0.5523  1.1486
24174SOL    HW273964   7.250   1.529   7.275 -1.1919 -1.0638 -0.2661
24175SOL     OW73965   7.101   7.568   5.149 -1.0495 -0.0979 -0.1963
24175SOL    HW173966   7.087   7.475   5.166  0.3327 -0.5943 -1.5503
24175SOL    HW273967   7.111   7.607   5.236 -4.9344 -0.5527  0.6125
24176SOL     OW73968   2.297   7.369   6.085  0.4757  0.2117 -0.3651
24176SOL    HW173969   2.334   7.354   5.998  1.1612 -0.4440  0.0305
24176SOL    HW273970   2.296   7.465   6.094  2.4404  0.2597 -0.2584
24177SOL     OW73971   1.807   3.852   8.627  0.3789  0.1978 -0.1278
24177SOL    HW173972   1.873   3.921   8.634  0.1137  0.3871  0.5745
24177SOL    HW273973   1.789   3.846   8.533  1.9367 -0.3792 -0.4239
24178SOL     OW73974   4.826   1.228  12.324  0.2044 -0.2020 -0.6000
24178SOL    HW173975   4.899   1.166  12.325 -1.4621 -2.2763  0.9847
24178SOL    HW273976   4.778   1.208  12.244  0.1613 -0.3497 -0.5375
24179SOL     OW73977   1.270   5.448  10.458 -0.8180 -0.1859 -0.7283
24179SOL    HW173978   1.345   5.450  10.398 -0.2414 -0.4530 -0.0349
24179SOL    HW273979   1.280   5.527  10.512  0.9577 -1.9324  1.6874
24180SOL     OW73980   2.812   2.368   9.243 -0.3323  0.3008 -0.1109
24180SOL    HW173981   2.773   2.388   9.158 -0.6400  0.7679  0.1365
24180SOL    HW273982   2.796   2.446   9.296 -1.7353 -0.6383  0.9454
24181SOL     OW73983   2.555   4.995   0.813  0.3071 -0.4833 -0.0445
24181SOL    HW173984   2.537   4.951   0.730  0.2805 -1.0989  0.2841
24181SOL    HW273985   2.535   5.087   0.796 -0.2024 -0.6855 -0.5673
24182SOL     OW73986   1.057   1.073   9.013  0.1917  0.1373 -0.2399
24182SOL    HW173987   0.990   1.068   8.945 -1.9348 -0.4895  1.7831
24182SOL    HW273988   1.079   1.166   9.019 -1.2544  0.4921 -0.2644
24183SOL     OW73989   7.031   2.047   3.233 -0.2023  0.0990 -0.1448
24183SOL    HW173990   7.095   2.114   3.255 -3.9217  3.6764  1.0747
24183SOL    HW273991   7.018   2.056   3.139 -1.3598  1.9265  0.1484
24184SOL     OW73992   4.599   4.026   9.001 -0.0035  0.0535  0.0516
24184SOL    HW173993   4.665   3.958   8.992  0.4379  0.2065  1.7015
24184SOL    HW273994   4.638   4.104   8.961  0.0274 -0.3235 -0.6605
24185SOL     OW73995   6.820   7.537   1.425 -1.0875  0.0478 -0.9827
24185SOL    HW173996   6.781   7.625   1.420 -0.3697  0.5628  1.0893
24185SOL    HW273997   6.913   7.552   1.406 -0.9422 -0.2234 -0.5028
24186SOL     OW73998   3.108   4.213  10.768 -0.4025 -0.3462 -0.1803
24186SOL    HW173999   3.042   4.144  10.774 -0.7127  0.0270  0.9547
24186SOL    HW274000   3.192   4.166  10.766 -0.6036 -0.7762  0.6718
24187SOL     OW74001   2.502   0.544   7.865 -0.1579  0.6328 -0.5603
24187SOL    HW174002   2.543   0.515   7.784  0.0225  0.4081 -0.3926
24187SOL    HW274003   2.502   0.640   7.860 -0.1892  0.6167 -0.8433
24188SOL     OW74004   1.330   0.296   6.357 -0.3257  0.9741  0.0052
24188SOL    HW174005   1.265   0.291   6.428  0.9758  1.3827  1.2778
24188SOL    HW274006   1.321   0.213   6.311 -1.7490  1.0244  0.1503
24189SOL     OW74007   2.902   2.984   9.423  0.1888  0.2207 -0.5222
24189SOL    HW174008   2.877   2.902   9.466 -1.9457  0.8336 -0.4852
24189SOL    HW274009   2.857   2.981   9.339  1.1728  0.7859 -1.0786
24190SOL     OW74010   5.127   7.349   8.344 -0.9434  0.2381 -0.2064
24190SOL    HW174011   5.067   7.295   8.395 -0.3236 -0.1537  0.1158
24190SOL    HW274012   5.070   7.402   8.288 -1.7432  1.7747  1.9290
24191SOL     OW74013   3.398   5.517   7.544 -0.2867  0.3101 -0.7014
24191SOL    HW174014   3.451   5.483   7.617 -1.7578  0.9113  0.6951
24191SOL    HW274015   3.328   5.452   7.533  0.6024 -0.4265 -2.4691
24192SOL     OW74016   5.428   4.689  11.670 -0.4859 -0.8016 -0.4537
24192SOL    HW174017   5.427   4.593  11.675 -1.7965 -0.8540 -1.2507
24192SOL    HW274018   5.358   4.717  11.729  0.6648 -0.2488  0.7056
24193SOL     OW74019   0.216   1.213   6.049  0.4724  0.1171  0.0634
24193SOL    HW174020   0.224   1.127   6.008 -0.8938 -0.0385  0.0623
24193SOL    HW274021   0.291   1.219   6.109  0.8856 -0.8369 -0.3463
24194SOL     OW74022   5.584   6.450  11.557 -0.1881 -0.3533  0.6425
24194SOL    HW174023   5.572   6.386  11.627  0.1647 -1.4634 -0.2758
24194SOL    HW274024   5.496   6.481  11.537 -0.6932 -2.2925 -0.4524
24195SOL     OW74025   1.411   7.317   0.826  0.1891  0.2828 -0.3996
24195SOL    HW174026   1.414   7.398   0.877 -0.3422 -0.0438  0.1656
24195SOL    HW274027   1.342   7.331   0.762 -0.4063  0.0096  0.1747
24196SOL     OW74028   6.650   7.114   0.561 -0.2406  0.5256  0.4807
24196SOL    HW174029   6.590   7.175   0.518 -0.6005  1.5084  2.2487
24196SOL    HW274030   6.614   7.103   0.649  1.3097 -0.1197  1.0753
24197SOL     OW74031   1.031   3.515   4.508 -0.5821 -0.0529  0.3436
24197SOL    HW174032   1.125   3.522   4.527 -0.3309 -0.7849 -0.5652
24197SOL    HW274033   1.027   3.467   4.425 -1.6725  1.6535 -0.6542
24198SOL     OW74034   2.316   5.669   7.960 -0.2955  0.6312 -0.4839
24198SOL    HW174035   2.314   5.591   7.903  0.9680 -0.5962  1.0735
24198SOL    HW274036   2.223   5.686   7.978 -0.5938 -1.1368 -0.0740
24199SOL     OW74037   4.445   5.758   7.329  0.2071  0.0754  0.1286
24199SOL    HW174038   4.383   5.820   7.291  0.6838 -0.1262 -1.0222
24199SOL    HW274039   4.510   5.813   7.374  1.6658  0.5878 -2.4358
24200SOL     OW74040   6.582   2.150   1.157  0.6487 -0.3032  0.0325
24200SOL    HW174041   6.514   2.087   1.130  0.1107  0.1258  0.3636
24200SOL    HW274042   6.664   2.112   1.126  0.3262 -1.1594  0.2090
24201SOL     OW74043   6.185   6.978   0.998  0.0777  0.2617  0.0469
24201SOL    HW174044   6.243   6.901   0.998  0.9396  0.7744  3.1887
24201SOL    HW274045   6.107   6.949   1.046 -1.0683  0.4354 -1.6449
24202SOL     OW74046   7.086   7.784   7.214 -0.7012 -0.2088 -0.3042
24202SOL    HW174047   7.025   7.764   7.143 -0.9338 -0.8506  0.0655
24202SOL    HW274048   7.108   7.698   7.252 -3.1862  0.2290  2.5564
24203SOL     OW74049   0.911   1.603   9.845 -0.6197  0.3248  0.3404
24203SOL    HW174050   0.838   1.554   9.808  0.0840 -0.7004  0.2730
24203SOL    HW274051   0.924   1.676   9.784 -0.2407 -0.6728 -0.8080
24204SOL     OW74052   4.477   0.361   5.496  0.5193 -0.4468  0.3591
24204SOL    HW174053   4.551   0.323   5.543  0.7691  1.4444  1.6303
24204SOL    HW274054   4.402   0.308   5.522  1.1975 -1.5341  0.1516
24205SOL     OW74055   2.826   0.016   1.968 -0.6025  0.2876  0.1908
24205SOL    HW174056   2.759  -0.007   2.032  0.1674 -1.2614  0.5009
24205SOL    HW274057   2.830   0.111   1.970 -1.7603  0.3384  1.2196
24206SOL     OW74058   2.838   0.701   1.090 -0.2954 -0.4187 -0.5767
24206SOL    HW174059   2.922   0.666   1.061 -1.0187 -2.1399 -0.7209
24206SOL    HW274060   2.859   0.752   1.168  0.9414 -0.4133 -0.8904
24207SOL     OW74061   1.799   6.209   3.269 -0.1554 -0.1255 -0.3193
24207SOL    HW174062   1.776   6.157   3.192 -0.0386  0.0937 -0.5007
24207SOL    HW274063   1.876   6.259   3.243  0.6624 -0.9966  0.3417
24208SOL     OW74064   3.817   1.156   2.729  0.6266 -1.1349  0.2154
24208SOL    HW174065   3.787   1.247   2.735  3.3536 -0.1128 -0.2557
24208SOL    HW274066   3.753   1.107   2.780 -1.0761  0.9913  0.3002
24209SOL     OW74067   2.499   0.753   2.330 -0.2605  0.0187  0.1694
24209SOL    HW174068   2.462   0.722   2.247  0.6305 -0.4113 -0.0865
24209SOL    HW274069   2.554   0.681   2.360  0.8186  0.8404  0.2266
24210SOL     OW74070   2.249   7.248   2.205  0.2935 -0.0506 -0.0676
24210SOL    HW174071   2.189   7.315   2.172 -0.6542 -0.2943  1.1064
24210SOL    HW274072   2.310   7.295   2.261 -0.9088 -0.2618  1.4595
24211SOL     OW74073   2.613   0.773   3.710 -0.4996 -0.4484 -0.0244
24211SOL    HW174074   2.615   0.678   3.714  0.2471 -0.4203  0.3173
24211SOL    HW274075   2.520   0.795   3.705 -0.7470 -1.1497  1.1672
24212SOL     OW74076   1.893   4.232  11.419  0.0837  0.1900  0.2225
24212SOL    HW174077   1.940   4.171  11.361  1.5659  0.5609  0.9642
24212SOL    HW274078   1.878   4.181  11.499  2.9226  1.1864  1.5473
24213SOL     OW74079   1.218   2.195   0.236 -0.1771 -0.5642  0.3556
24213SOL    HW174080   1.127   2.188   0.265  0.2343  0.6564  2.0891
24213SOL    HW274081   1.250   2.275   0.277  1.1169  0.1371 -1.8532
24214SOL     OW74082   1.178   1.313   9.346 -0.0311 -0.1400 -0.9442
24214SOL    HW174083   1.084   1.333   9.344 -0.2451 -0.2640  2.7255
24214SOL    HW274084   1.186   1.238   9.404  2.4110  0.2329 -0.6936
24215SOL     OW74085   6.201   3.799   0.956  0.1948 -0.6864  0.7644
24215SOL    HW174086   6.118   3.836   0.987  0.3932 -0.7185  1.3406
24215SOL    HW274087   6.182   3.769   0.867  0.1512  1.2589  0.0757
24216SOL     OW74088   1.645   1.909   4.040 -0.3450 -0.2887  0.3058
24216SOL    HW174089   1.616   1.882   4.128 -3.0212  1.2368  0.0101
24216SOL    HW274090   1.699   1.987   4.056 -0.2612 -0.4131  0.6450
24217SOL     OW74091   7.721   4.996   8.578 -0.1095 -0.5440 -0.1033
24217SOL    HW174092   7.693   4.946   8.655  1.3778 -1.7233 -0.2965
24217SOL    HW274093   7.813   4.972   8.565  0.5099  1.7833 -0.5740
24218SOL     OW74094   5.518   2.987   5.579  0.1341 -0.0975  0.3670
24218SOL    HW174095   5.562   2.904   5.564 -1.4596 -0.7844 -0.7619
24218SOL    HW274096   5.425   2.967   5.572 -0.2906  2.1843 -2.4023
24219SOL     OW74097   5.759   5.962  11.687  0.4219 -0.6438  0.4150
24219SOL    HW174098   5.710   5.984  11.608  0.7176 -2.3740 -0.2861
24219SOL    HW274099   5.696   5.975  11.758 -0.1192  0.0563 -0.1750
24220SOL     OW74100   6.144   2.720   4.387  0.9276 -0.4994  0.8380
24220SOL    HW174101   6.127   2.807   4.421  3.8717  1.1179 -1.3396
24220SOL    HW274102   6.164   2.667   4.464  0.4790  1.1156  2.1154
24221SOL     OW74103   2.697   3.833   9.669  0.0352  0.3955 -0.0666
24221SOL    HW174104   2.758   3.890   9.622 -0.1275  0.7907  0.1923
24221SOL    HW274105   2.753   3.766   9.708  0.1244 -0.1924 -1.1777
24222SOL     OW74106   6.055   2.511  11.506 -0.0632 -0.4188  0.0255
24222SOL    HW174107   6.039   2.498  11.412  2.3944 -0.9340 -0.3941
24222SOL    HW274108   6.109   2.590  11.510 -1.1478  0.3105  1.1678
24223SOL     OW74109   5.765   5.474   1.496 -0.2798  0.2822  0.3860
24223SOL    HW174110   5.726   5.546   1.545 -0.2637  0.4800  0.1087
24223SOL    HW274111   5.789   5.512   1.412  1.9639  0.5521  1.0851
24224SOL     OW74112   6.132   4.279   1.410  0.2259  0.0660  0.0560
24224SOL    HW174113   6.214   4.230   1.403  0.4175  0.0718  1.6992
24224SOL    HW274114   6.071   4.235   1.351  1.5651  0.4571 -1.6914
24225SOL     OW74115   6.633   1.719   4.157 -0.5096 -0.1459 -0.4214
24225SOL    HW174116   6.709   1.710   4.100  1.5498  0.7032  2.0110
24225SOL    HW274117   6.603   1.809   4.144  0.3398  0.2452  0.2389
24226SOL     OW74118   6.912   0.885   0.755 -0.4695  0.0721  0.9250
24226SOL    HW174119   6.933   0.978   0.764  0.8769 -0.0973 -0.1471
24226SOL    HW274120   6.858   0.879   0.677 -1.5140  0.0634  1.6259
24227SOL     OW74121   0.942   6.445   5.927 -0.1472  0.3863  0.1478
24227SOL    HW174122   1.005   6.477   5.992  0.2144  1.3860 -0.6652
24227SOL    HW274123   0.942   6.513   5.859 -2.5587  0.7241  0.4165
24228SOL     OW74124   6.216   2.455   6.317  0.5445 -0.0831  0.2373
24228SOL    HW174125   6.135   2.502   6.299  0.5733 -0.2741 -0.3953
24228SOL    HW274126   6.246   2.491   6.401  1.1722  1.8836 -0.7698
24229SOL     OW74127   5.260   6.050   2.875  0.0018  0.0306 -0.5312
24229SOL    HW174128   5.182   6.078   2.827  0.2210  0.1053 -0.8465
24229SOL    HW274129   5.279   6.123   2.934  0.4959  0.4994 -1.2580
24230SOL     OW74130   7.286   0.875   8.661 -0.1008  0.0507  0.3315
24230SOL    HW174131   7.313   0.785   8.643  1.6522  0.2916  1.4832
24230SOL    HW274132   7.239   0.869   8.745  1.1901  0.3467  1.1046
24231SOL     OW74133   0.233   6.746   7.481  0.6218 -0.5548 -0.3624
24231SOL    HW174134   0.219   6.761   7.575 -0.2014  0.7156 -0.6692
24231SOL    HW274135   0.231   6.833   7.442  0.1903 -1.1284 -1.6749
24232SOL     OW74136   5.862   2.551  10.073  0.0044  0.2765 -0.1430
24232SOL    HW174137   5.841   2.614  10.142  0.4892  1.8418 -1.3511
24232SOL    HW274138   5.913   2.602  10.010 -0.3945 -1.1124 -1.6371
24233SOL     OW74139   5.724   2.692   3.838 -0.2306 -0.0684 -0.1782
24233SOL    HW174140   5.646   2.645   3.867  0.9824 -1.6684  0.6777
24233SOL    HW274141   5.704   2.784   3.850 -1.7806 -0.4769  0.5123
24234SOL     OW74142   7.918   5.771   3.078 -0.4583  0.3210  0.3407
24234SOL    HW174143   7.980   5.698   3.065  0.7196  1.7398 -3.3040
24234SOL    HW274144   7.945   5.811   3.160  1.9119 -0.6091  0.0963
24235SOL     OW74145   0.481   4.040   3.201 -0.2039 -0.3298 -0.2248
24235SOL    HW174146   0.516   4.003   3.282 -0.4824 -2.0627 -0.8465
24235SOL    HW274147   0.416   4.104   3.229  0.1157 -0.4800  0.9103
24236SOL     OW74148   0.056   3.989   0.898 -0.7904 -0.2640 -0.1666
24236SOL    HW174149   0.012   3.969   0.980  0.6607 -1.0548  0.4692
24236SOL    HW274150   0.088   4.078   0.908  0.3716 -0.7427  0.6330
24237SOL     OW74151   5.109   5.316   4.561  0.2522  0.1902  0.8056
24237SOL    HW174152   5.035   5.259   4.541  0.8203 -0.4633  0.5584
24237SOL    HW274153   5.184   5.257   4.570  0.7403  0.8383  1.1024
24238SOL     OW74154   1.253   4.657   9.996 -0.1185 -0.0225 -0.5187
24238SOL    HW174155   1.223   4.667  10.086  1.5082  0.1303  0.0373
24238SOL    HW274156   1.192   4.595   9.957 -2.5476  2.0008 -0.1815
24239SOL     OW74157   6.656   3.702   9.403  0.4970  0.1371 -0.4140
24239SOL    HW174158   6.656   3.751   9.485 -0.2848 -0.9883  0.3069
24239SOL    HW274159   6.744   3.664   9.397  0.3087 -0.4605  0.3672
24240SOL     OW74160   4.536   5.746   2.390 -0.0822  0.6748  0.2221
24240SOL    HW174161   4.463   5.804   2.412  0.5747  1.3072  0.7828
24240SOL    HW274162   4.524   5.727   2.297  0.0999  2.3165 -0.1614
24241SOL     OW74163   7.013   3.273   6.098 -0.1471 -0.1923  0.4859
24241SOL    HW174164   7.030   3.246   6.189  1.6847  0.9926  0.5491
24241SOL    HW274165   6.950   3.345   6.107  1.9170  1.6638  1.1213
24242SOL     OW74166   3.664   0.114   1.446 -0.4768 -0.0550  0.0047
24242SOL    HW174167   3.570   0.110   1.428 -0.3080  0.2770 -1.0098
24242SOL    HW274168   3.704   0.137   1.362  0.4392  0.6532  0.6129
24243SOL     OW74169   5.925   0.871   8.207 -0.3245  0.1834 -0.2523
24243SOL    HW174170   5.934   0.901   8.116  0.9384  2.7028  0.6136
24243SOL    HW274171   6.015   0.869   8.240 -0.9438  2.3467  1.7988
24244SOL     OW74172   7.657   4.128   2.496  0.1264 -0.0067  0.2937
24244SOL    HW174173   7.573   4.139   2.539  0.3334  0.1807  0.6566
24244SOL    HW274174   7.688   4.042   2.524 -0.7166 -0.8442 -1.1995
24245SOL     OW74175   1.112   1.167   2.320  0.3899 -0.6908  0.2479
24245SOL    HW174176   1.145   1.203   2.403  1.1458 -0.6055 -0.0741
24245SOL    HW274177   1.183   1.109   2.290  1.3868  1.3661 -1.6959
24246SOL     OW74178   6.536   2.926  12.119 -0.0997  0.1668  0.1166
24246SOL    HW174179   6.530   3.020  12.108 -0.0979  0.0793 -0.6870
24246SOL    HW274180   6.577   2.914  12.205 -0.2200  0.8901  0.2768
24247SOL     OW74181   4.938   7.963   1.785 -0.0984 -0.5147  0.2340
24247SOL    HW174182   4.922   8.039   1.729  1.1531 -0.3781  0.0537
24247SOL    HW274183   4.860   7.909   1.774  0.0117 -0.3803 -1.4469
24248SOL     OW74184   2.320   3.913   8.252  0.7940  0.2667  0.4053
24248SOL    HW174185   2.268   3.933   8.174  1.5604  1.2055  0.1105
24248SOL    HW274186   2.260   3.928   8.325  0.4798  0.7692  0.0531
24249SOL     OW74187   7.450   6.759   5.542  0.9938 -0.2308  0.3795
24249SOL    HW174188   7.493   6.733   5.460  1.2926 -0.7744  0.7006
24249SOL    HW274189   7.433   6.676   5.587 -1.8119 -0.1633 -0.4148
24250SOL     OW74190   5.046   2.938   3.902  0.2186  0.1594 -0.0155
24250SOL    HW174191   4.958   2.908   3.878  0.0378  1.5224 -1.1976
24250SOL    HW274192   5.103   2.865   3.879 -0.5713 -0.6700  0.5834
24251SOL     OW74193   1.927   1.898   0.752  0.2938  0.5468 -0.2066
24251SOL    HW174194   1.898   1.945   0.830 -2.3549 -0.7417 -0.3153
24251SOL    HW274195   1.849   1.891   0.698  1.5913 -0.4062 -2.0528
24252SOL     OW74196   6.807   4.383   7.859  0.2280 -0.7373  0.2244
24252SOL    HW174197   6.878   4.447   7.853  0.1763 -0.7870 -1.3695
24252SOL    HW274198   6.765   4.387   7.773 -2.3288 -0.0070  1.4321
24253SOL     OW74199   2.475   4.158   7.088 -0.5762 -0.5746  0.1023
24253SOL    HW174200   2.418   4.233   7.074 -1.5027 -1.0687  1.0612
24253SOL    HW274201   2.516   4.174   7.173  0.2329 -0.5229 -0.2981
24254SOL     OW74202   7.007   2.496   7.680 -0.0854  0.1430 -0.0146
24254SOL    HW174203   7.006   2.563   7.611 -0.0674  2.6980  2.2916
24254SOL    HW274204   7.096   2.500   7.716  0.2197 -1.8820 -0.4718
24255SOL     OW74205   1.368   1.400   9.945  0.5316  0.2740  0.0010
24255SOL    HW174206   1.275   1.407   9.963  0.3601  0.4767 -0.9231
24255SOL    HW274207   1.396   1.321   9.992  0.3204  1.2707  1.8947
24256SOL     OW74208   3.264   0.925  11.602 -0.1520  0.3277 -0.1816
24256SOL    HW174209   3.190   0.918  11.543 -0.4880  1.8065  0.0096
24256SOL    HW274210   3.327   0.981  11.555 -0.1695  1.0213  0.5868
24257SOL     OW74211   1.820   0.508   7.534  0.9402 -0.1777 -0.2105
24257SOL    HW174212   1.741   0.551   7.566 -0.1652 -1.7136 -0.7446
24257SOL    HW274213   1.788   0.433   7.484  2.7532 -1.0128 -0.2037
24258SOL     OW74214   5.776   2.467   5.469 -0.1279 -0.2798  0.5785
24258SOL    HW174215   5.809   2.502   5.551  0.0593 -0.1320  0.4416
24258SOL    HW274216   5.701   2.413   5.494 -0.0068 -0.3210  0.8538
24259SOL     OW74217   3.858   0.602   7.957 -0.0605 -0.0485 -0.0528
24259SOL    HW174218   3.928   0.570   7.900  0.2508  1.0067 -0.2789
24259SOL    HW274219   3.777   0.579   7.911  0.0601 -2.2420  0.7121
24260SOL     OW74220   3.009   6.209   8.782  0.0886  0.1069  0.3691
24260SOL    HW174221   2.966   6.244   8.860 -0.7949 -0.4195  0.1332
24260SOL    HW274222   2.942   6.211   8.714  1.2035  1.7742 -0.7564
24261SOL     OW74223   4.228   5.160   5.040  0.2548  0.3757  0.1708
24261SOL    HW174224   4.222   5.252   5.015  1.5776  0.7546  1.1467
24261SOL    HW274225   4.310   5.153   5.089 -0.0904 -1.2119  0.5958
24262SOL     OW74226   1.403   2.961   4.839  0.0464 -0.1395 -0.2977
24262SOL    HW174227   1.437   3.016   4.767 -0.1211 -0.9776 -1.0296
24262SOL    HW274228   1.467   2.891   4.847 -0.4126 -0.5552 -0.2494
24263SOL     OW74229   6.088   7.617   1.447  0.6086 -0.4737 -0.0597
24263SOL    HW174230   5.995   7.631   1.461  0.9663  1.6111  0.6110
24263SOL    HW274231   6.107   7.536   1.494 -0.5051  0.1374  1.5384
24264SOL     OW74232   0.045   1.882   8.596 -0.0227 -0.6715 -0.1310
24264SOL    HW174233  -0.026   1.908   8.655 -0.4133 -0.9640 -0.4675
24264SOL    HW274234   0.059   1.959   8.540  0.4706 -0.3274  0.4490
24265SOL     OW74235   6.066   5.241   5.213 -0.4944 -0.3454  0.3280
24265SOL    HW174236   5.994   5.270   5.158  1.0211 -1.1632 -2.2570
24265SOL    HW274237   6.024   5.206   5.292 -2.9687 -1.4033 -1.3491
24266SOL     OW74238   3.995   5.349   6.611 -0.5093  0.1820  0.3912
24266SOL    HW174239   4.079   5.324   6.651 -0.3397  0.5720  0.2744
24266SOL    HW274240   3.936   5.276   6.633 -0.3430  0.2622  1.1201
24267SOL     OW74241   1.336   7.413  12.280 -0.0341 -0.2973 -0.1320
24267SOL    HW174242   1.353   7.432  12.372 -0.6682 -2.3028  0.4338
24267SOL    HW274243   1.392   7.475  12.232 -1.5345  2.5680  1.5045
24268SOL     OW74244   5.778   7.257   6.028 -0.4966  0.4079  0.0530
24268SOL    HW174245   5.864   7.292   6.003 -1.4930  1.4700 -2.0762
24268SOL    HW274246   5.720   7.334   6.028 -1.4429 -0.2562  1.6484
24269SOL     OW74247   6.491   5.937   6.797 -0.1182  0.0211 -0.3270
24269SOL    HW174248   6.439   5.873   6.750 -2.3695  0.2452  1.6605
24269SOL    HW274249   6.531   5.888   6.869 -0.4951  0.5127  0.2273
24270SOL     OW74250   6.420   2.533  10.085  0.6408  0.1041  0.1672
24270SOL    HW174251   6.477   2.597  10.041 -0.1149 -0.6555 -2.0266
24270SOL    HW274252   6.368   2.495  10.014 -0.0133 -1.8441  1.6316
24271SOL     OW74253   3.294   1.628   9.315 -0.3616  0.0005 -0.0158
24271SOL    HW174254   3.333   1.663   9.395 -1.9829 -0.1930  0.9161
24271SOL    HW274255   3.342   1.547   9.298  0.8278  0.6794  0.0310
24272SOL     OW74256   1.558   3.667   7.329  0.2090 -0.2170 -0.2036
24272SOL    HW174257   1.575   3.761   7.327  1.8799 -0.4799 -0.1466
24272SOL    HW274258   1.498   3.651   7.256  2.7356  0.4120 -2.5697
24273SOL     OW74259   2.777   6.529   2.983  0.0989  0.1502  0.5109
24273SOL    HW174260   2.712   6.594   2.957 -1.5087 -2.4269 -2.7803
24273SOL    HW274261   2.726   6.458   3.022  1.0570 -1.2202 -0.6144
24274SOL     OW74262   6.457   2.711   1.448  0.2242 -0.2904 -0.0468
24274SOL    HW174263   6.383   2.765   1.476 -0.3795 -1.5960  1.0064
24274SOL    HW274264   6.509   2.699   1.527 -0.2986 -2.1906  0.0550
24275SOL     OW74265   6.593   7.125   1.416 -0.5732 -0.0171 -0.4983
24275SOL    HW174266   6.657   7.123   1.345 -0.8338 -1.1638 -0.7240
24275SOL    HW274267   6.617   7.052   1.472 -1.1013  0.1311 -0.0664
24276SOL     OW74268   4.038   0.985   6.856 -0.4821  0.0416 -0.1645
24276SOL    HW174269   4.075   0.904   6.823 -0.7820  0.3537 -1.3103
24276SOL    HW274270   4.043   1.046   6.782  1.7146  1.7552  1.2517
24277SOL     OW74271   6.220   0.959  11.611  0.4051  0.4877  0.2827
24277SOL    HW174272   6.292   0.896  11.613 -0.0559 -0.0666 -0.0000
24277SOL    HW274273   6.171   0.937  11.531 -0.7861  0.0218  1.1033
24278SOL     OW74274   4.586   6.433   9.422 -0.5123 -0.1448  0.4457
24278SOL    HW174275   4.648   6.480   9.366  0.1570 -1.3108  0.1569
24278SOL    HW274276   4.541   6.501   9.472  1.3038  0.7351  0.9664
24279SOL     OW74277   0.964   7.742   8.475  0.2419  0.3636  0.8630
24279SOL    HW174278   0.909   7.669   8.503  0.5209 -0.4379 -0.5734
24279SOL    HW274279   0.987   7.721   8.385  2.4802  0.9407  1.2481
24280SOL     OW74280   1.309   2.120   9.508  0.5033  0.3943  0.2356
24280SOL    HW174281   1.343   2.192   9.455  0.7418  0.5007  0.5330
24280SOL    HW274282   1.384   2.087   9.557  0.5568 -0.5421 -0.4422
24281SOL     OW74283   1.166   7.526   9.841 -0.5443  0.4923  0.0378
24281SOL    HW174284   1.194   7.589   9.908 -0.1982  1.6568 -1.1773
24281SOL    HW274285   1.234   7.530   9.774 -0.6481 -1.0144 -0.1966
24282SOL     OW74286   6.283   3.865   0.199 -0.0532  0.0818  0.1322
24282SOL    HW174287   6.286   3.833   0.290  0.5593 -1.0048 -0.2538
24282SOL    HW274288   6.260   3.958   0.207  0.6367  0.1645  1.4366
24283SOL     OW74289   5.308   0.079   5.096  0.2712  0.3417 -0.0831
24283SOL    HW174290   5.398   0.095   5.125 -0.7068  1.3523  2.6599
24283SOL    HW274291   5.261   0.160   5.114 -1.5295 -0.6414 -0.0547
24284SOL     OW74292   1.642   6.238   1.351  0.4036  0.3731  0.5265
24284SOL    HW174293   1.711   6.304   1.345  0.9073 -0.2689 -1.3342
24284SOL    HW274294   1.685   6.156   1.329 -0.8064 -0.1529  0.0486
24285SOL     OW74295   5.027   7.087  11.423  0.2237 -0.2682 -0.2622
24285SOL    HW174296   5.009   6.993  11.433 -0.6627 -0.2543 -1.5393
24285SOL    HW274297   4.993   7.109  11.336 -1.2818  1.6235  0.7233
24286SOL     OW74298   0.566   7.634   7.271  0.7938  0.6052  0.3794
24286SOL    HW174299   0.534   7.667   7.187  0.8008 -0.5640 -0.0987
24286SOL    HW274300   0.491   7.590   7.310  1.4494 -1.1197 -0.2145
24287SOL     OW74301   7.096   1.345   0.222  0.0897  0.4266  0.0605
24287SOL    HW174302   7.085   1.250   0.220 -1.8154  0.5138  2.2215
24287SOL    HW274303   7.163   1.362   0.156 -0.2561 -2.2893 -1.1584
24288SOL     OW74304   7.720   1.567   3.489 -0.1681  0.1804  0.0392
24288SOL    HW174305   7.759   1.479   3.489  0.8670  0.5348  3.0206
24288SOL    HW274306   7.784   1.622   3.444  0.9529 -0.0035  1.3250
24289SOL     OW74307   2.448   3.012   5.532  0.5434  0.2018 -0.7220
24289SOL    HW174308   2.425   3.028   5.624  2.2289  1.5084 -0.4746
24289SOL    HW274309   2.404   2.930   5.511 -1.9385  1.0875  0.4722
24290SOL     OW74310   4.729   6.463   2.086 -0.4153 -0.5922 -0.1915
24290SOL    HW174311   4.814   6.475   2.042  0.4812  1.6101  1.9107
24290SOL    HW274312   4.704   6.551   2.113 -2.2063 -1.5102  1.3496
24291SOL     OW74313   1.114   3.327  10.036  0.3535  0.1961 -0.0284
24291SOL    HW174314   1.022   3.309  10.058  0.4165  0.5143  0.4835
24291SOL    HW274315   1.162   3.312  10.117  0.3125  3.5838  0.7346
24292SOL     OW74316   6.167   1.560   6.891 -0.3716 -0.3630 -0.1526
24292SOL    HW174317   6.165   1.498   6.818 -1.3385  0.9971 -1.3298
24292SOL    HW274318   6.192   1.643   6.851 -1.3770  0.5161  0.9882
24293SOL     OW74319   4.631   6.879   8.249 -0.0938  0.2185  0.2067
24293SOL    HW174320   4.585   6.809   8.295  0.6526  1.0133  2.2862
24293SOL    HW274321   4.669   6.836   8.171 -1.7061 -1.0944  0.0887
24294SOL     OW74322   2.044   3.212   8.484 -0.5138 -0.2618  0.2654
24294SOL    HW174323   2.012   3.299   8.507  2.5417  1.2448 -0.6480
24294SOL    HW274324   2.118   3.197   8.543  0.5242 -1.1142 -1.1848
24295SOL     OW74325   0.229   4.718   7.592 -0.1947  0.1451  0.3200
24295SOL    HW174326   0.321   4.742   7.600 -0.5216  1.4949  0.2795
24295SOL    HW274327   0.200   4.760   7.511 -0.9012 -0.1082  0.4339
24296SOL     OW74328   6.004   0.255  10.988  0.2654  0.0575  0.5499
24296SOL    HW174329   6.077   0.260  11.050  1.6631  2.9174 -1.1173
24296SOL    HW274330   5.938   0.315  11.022 -0.3589 -0.7917  0.8713
24297SOL     OW74331   5.934   3.120   0.253 -0.4637 -0.1224  0.5111
24297SOL    HW174332   6.024   3.098   0.229 -1.2518 -0.4933 -2.4600
24297SOL    HW274333   5.900   3.167   0.177 -3.5126 -2.0951  0.5028
24298SOL     OW74334   7.058   1.109   3.035 -0.0618  0.4277 -0.2717
24298SOL    HW174335   7.122   1.130   3.103 -0.6749  1.8131 -0.0859
24298SOL    HW274336   7.031   1.019   3.055 -0.1543  0.7584  1.2721
24299SOL     OW74337   4.082   4.015   8.819 -0.1827  0.0793  0.0774
24299SOL    HW174338   4.002   4.062   8.796  0.1341  0.2762 -0.6506
24299SOL    HW274339   4.052   3.938   8.867 -0.7258  0.8296  0.9601
24300SOL     OW74340   6.564   2.819   4.560  0.0260  0.1171 -0.1744
24300SOL    HW174341   6.636   2.860   4.514 -0.4119  1.4429  0.2744
24300SOL    HW274342   6.489   2.877   4.545 -0.0088  0.9422  2.5910
24301SOL     OW74343   5.413   4.515  12.139  0.9462  0.2369  0.2437
24301SOL    HW174344   5.496   4.536  12.096  0.8718  0.0341  0.0008
24301SOL    HW274345   5.371   4.452  12.080  1.1662 -0.5978  0.9487
24302SOL     OW74346   4.040   4.839   1.146 -0.2211 -0.0903 -0.0448
24302SOL    HW174347   3.970   4.783   1.113 -0.6977  1.1219 -1.1827
24302SOL    HW274348   4.116   4.816   1.092 -0.5389  0.6458 -0.8370
24303SOL     OW74349   1.486   7.492   4.450 -1.0344 -0.1024 -0.2116
24303SOL    HW174350   1.569   7.446   4.462 -0.7372 -0.3057 -2.5965
24303SOL    HW274351   1.443   7.446   4.377 -1.7368  2.0071 -1.1997
24304SOL     OW74352   5.666   0.971   9.368  0.5148 -0.0503 -0.4254
24304SOL    HW174353   5.675   0.885   9.328  1.3905 -0.7432  1.1515
24304SOL    HW274354   5.622   0.954   9.451  1.2054  0.9433  0.1597
24305SOL     OW74355   5.122   1.883   8.128 -0.5883  0.3053 -0.1339
24305SOL    HW174356   5.069   1.841   8.195  0.6880 -0.5836  0.3446
24305SOL    HW274357   5.192   1.928   8.177  0.2748 -0.2346 -0.8433
24306SOL     OW74358   2.198   4.130   5.959 -0.1740  0.1043  0.0653
24306SOL    HW174359   2.194   4.041   5.924 -2.2388  0.6465 -1.2606
24306SOL    HW274360   2.217   4.185   5.883 -1.5437  1.0153  0.3427
24307SOL     OW74361   6.155   0.060   7.903 -0.0288 -0.5300 -0.7948
24307SOL    HW174362   6.144  -0.009   7.969 -1.4962  0.5114  0.1187
24307SOL    HW274363   6.245   0.049   7.872  0.3868 -1.6830  0.6765
24308SOL     OW74364   6.972   3.540   8.904  0.0629  0.5519 -0.0942
24308SOL    HW174365   7.004   3.559   8.992 -1.5633  0.2838  0.5871
24308SOL    HW274366   7.006   3.452   8.886 -1.0749 -0.1494  1.0267
24309SOL     OW74367   5.507   3.810   8.124  0.3879  0.7506 -0.0340
24309SOL    HW174368   5.502   3.905   8.115  0.3356  0.6660 -1.0033
24309SOL    HW274369   5.480   3.776   8.039  1.7405 -0.1041 -0.1533
24310SOL     OW74370   2.398   2.468  11.481  0.2687 -0.3717  0.3319
24310SOL    HW174371   2.422   2.382  11.447 -2.5896 -0.5920 -1.4757
24310SOL    HW274372   2.450   2.530  11.430  1.7710 -0.9522  1.1069
24311SOL     OW74373   6.806   5.581   8.399  0.0975  0.1691 -0.3513
24311SOL    HW174374   6.751   5.607   8.325  0.1475  0.4291 -0.2984
24311SOL    HW274375   6.865   5.655   8.412 -1.9026  1.4905  1.9098
24312SOL     OW74376   2.536   0.711   8.134  0.4097 -0.4699 -0.5063
24312SOL    HW174377   2.614   0.661   8.158 -0.4452 -0.9946  1.4874
24312SOL    HW274378   2.507   0.673   8.051  2.5972  0.1870 -1.6252
24313SOL     OW74379   2.262   1.223  10.435  0.1226 -0.0742  0.1425
24313SOL    HW174380   2.323   1.215  10.508  1.6891  1.1944 -0.9450
24313SOL    HW274381   2.221   1.308  10.448  0.4185  0.1635 -0.4336
24314SOL     OW74382   5.417   3.796   7.074  0.1219  0.1089 -0.2454
24314SOL    HW174383   5.361   3.811   6.998 -0.7418 -0.8524  0.1591
24314SOL    HW274384   5.484   3.735   7.043 -0.0436 -0.0371 -0.3156
24315SOL     OW74385   0.932   3.217   2.107 -0.3075  0.2769 -0.2066
24315SOL    HW174386   0.919   3.142   2.165 -0.1827 -0.3290 -0.9487
24315SOL    HW274387   0.949   3.290   2.166  0.0623 -0.3786  0.5140
24316SOL     OW74388   5.424   7.521   1.881 -0.4368  0.7317 -0.6263
24316SOL    HW174389   5.413   7.591   1.817 -1.4224  0.4838 -0.7447
24316SOL    HW274390   5.504   7.476   1.853 -0.6358  0.8725 -1.4553
24317SOL     OW74391   7.224   2.740   5.903  0.0227  0.8372  0.5039
24317SOL    HW174392   7.162   2.682   5.860 -0.5156  0.8247  1.2663
24317SOL    HW274393   7.307   2.692   5.902 -0.0411  0.7345 -0.2729
24318SOL     OW74394   6.543   0.428   5.844  0.3413  0.2895  0.2128
24318SOL    HW174395   6.515   0.344   5.880  0.3271 -0.4854 -1.5207
24318SOL    HW274396   6.485   0.443   5.769  0.3421  1.8556  0.4801
24319SOL     OW74397   2.836   1.432  11.546 -0.0410  0.0136  0.3987
24319SOL    HW174398   2.867   1.421  11.456  1.1635  0.1126  0.7807
24319SOL    HW274399   2.755   1.383  11.550  1.4010 -2.5566  0.0582
24320SOL     OW74400   7.700   7.235   1.411 -0.1504  0.2784  0.2897
24320SOL    HW174401   7.689   7.221   1.317 -1.5775  1.3265  0.2668
24320SOL    HW274402   7.794   7.235   1.425  0.2294  3.0611 -1.6292
24321SOL     OW74403   5.806   3.726   7.848 -0.4155  0.0728 -0.0704
24321SOL    HW174404   5.796   3.713   7.754  0.3130  0.6500 -0.2321
24321SOL    HW274405   5.759   3.807   7.867 -0.3294  0.1022  0.0198
24322SOL     OW74406   2.527   0.731   5.908 -0.0666  0.6379 -0.1328
24322SOL    HW174407   2.495   0.814   5.874 -0.0105  0.6124 -0.2507
24322SOL    HW274408   2.615   0.750   5.941 -1.3291  1.4468  3.1455
24323SOL     OW74409   2.558   2.775   4.657  0.3662  0.1691 -1.1846
24323SOL    HW174410   2.630   2.800   4.714  0.2050 -1.3482 -0.2450
24323SOL    HW274411   2.488   2.837   4.678  0.4222 -0.1609  0.0627
24324SOL     OW74412   3.001   2.609   3.060 -0.1391 -0.1568 -0.2546
24324SOL    HW174413   3.054   2.645   2.989 -1.9243  1.5829 -0.8210
24324SOL    HW274414   3.060   2.603   3.134  1.7774 -1.9723 -1.7926
24325SOL     OW74415   4.795   5.150   5.120  0.2092 -0.0777  0.0822
24325SOL    HW174416   4.764   5.190   5.201 -0.0778  1.6769 -0.8229
24325SOL    HW274417   4.862   5.088   5.147 -0.2916  0.0388  1.6900
24326SOL     OW74418   1.627   5.233   5.820 -0.2963  0.5927 -0.0294
24326SOL    HW174419   1.566   5.306   5.830 -0.8699  0.2563 -0.9775
24326SOL    HW274420   1.577   5.165   5.775  1.2452  0.9368 -2.4435
24327SOL     OW74421   5.849   6.712  12.468  0.0027  0.5774  0.3615
24327SOL    HW174422   5.943   6.725  12.483  0.4347  1.3839 -2.4441
24327SOL    HW274423   5.806   6.772  12.529  1.3561  1.0886  0.8517
24328SOL     OW74424   1.273   2.002  10.998 -0.0255 -0.0003 -0.1701
24328SOL    HW174425   1.321   2.026  10.919  0.8271 -1.2353 -0.0514
24328SOL    HW274426   1.340   1.989  11.064 -0.6767  0.2516  0.5556
24329SOL     OW74427   7.024   0.466   0.253 -0.3566 -0.4682 -0.5499
24329SOL    HW174428   7.107   0.462   0.302 -1.9959 -1.6143  2.3668
24329SOL    HW274429   6.968   0.523   0.305 -1.7029 -0.3535 -2.0507
24330SOL     OW74430   5.846   7.614   0.397  0.3260 -0.4828  0.2186
24330SOL    HW174431   5.778   7.681   0.396 -1.3065 -2.0552  0.1060
24330SOL    HW274432   5.924   7.659   0.430 -0.9854  1.1666  1.2493
24331SOL     OW74433   4.786   4.768   0.665  0.2974  0.1043 -0.3044
24331SOL    HW174434   4.765   4.768   0.571 -2.0642 -0.4840  0.1540
24331SOL    HW274435   4.772   4.678   0.693  1.3683  0.1865  0.5622
24332SOL     OW74436   6.432   1.419   2.629 -0.6302  0.2493  0.2142
24332SOL    HW174437   6.466   1.415   2.718 -0.7638 -1.2577  0.2125
24332SOL    HW274438   6.381   1.500   2.626  0.1335  0.7925  1.2137
24333SOL     OW74439   6.739   7.206   4.542  0.1605 -0.6425  0.3169
24333SOL    HW174440   6.678   7.163   4.482  0.1023 -0.2576  0.0949
24333SOL    HW274441   6.809   7.142   4.556  0.6248 -0.4117 -0.8531
24334SOL     OW74442   3.342   0.240   0.918  0.4403 -0.3292  0.7842
24334SOL    HW174443   3.248   0.252   0.907  0.5122 -1.3917 -1.7901
24334SOL    HW274444   3.353   0.224   1.012 -1.4453  3.1974  1.7606
24335SOL     OW74445   0.647   5.369  11.324 -0.2514 -0.1519  0.1781
24335SOL    HW174446   0.559   5.337  11.343  0.4183 -1.2464  1.5642
24335SOL    HW274447   0.633   5.437  11.258 -2.2914  0.7476  1.4227
24336SOL     OW74448   4.460   2.524  10.097 -0.4055 -0.1965  0.1027
24336SOL    HW174449   4.475   2.613  10.130  0.2278 -0.7254  1.3291
24336SOL    HW274450   4.518   2.515  10.022 -0.3797  0.3824  0.0516
24337SOL     OW74451   3.666   2.281   3.927  0.1575 -0.3680 -0.2657
24337SOL    HW174452   3.742   2.295   3.871 -0.9341 -0.9282 -1.9701
24337SOL    HW274453   3.659   2.362   3.978 -0.3877  1.4426 -2.9642
24338SOL     OW74454   7.038   4.428   0.497 -0.0326 -0.6101  0.6959
24338SOL    HW174455   6.975   4.480   0.547  0.6502  0.6899  0.2432
24338SOL    HW274456   7.121   4.473   0.508 -0.0534  0.4348 -2.5404
24339SOL     OW74457   0.482   6.321   6.982 -0.0036  0.4787  0.2407
24339SOL    HW174458   0.437   6.376   6.917 -0.1844  0.0887  0.0370
24339SOL    HW274459   0.521   6.250   6.932  1.1918  1.0278  0.3661
24340SOL     OW74460   6.192   2.879   5.859  0.4114 -0.3512  0.5193
24340SOL    HW174461   6.114   2.924   5.892 -0.1416 -1.3940  0.6523
24340SOL    HW274462   6.193   2.899   5.765  0.8608  0.9431  0.7813
24341SOL     OW74463   3.123   2.489  12.312 -0.2008  0.0226 -0.8827
24341SOL    HW174464   3.093   2.460  12.398 -2.0826  0.4971 -1.3216
24341SOL    HW274465   3.196   2.548  12.331  0.1745 -0.7867  0.3120
24342SOL     OW74466   7.156   3.744   7.154  0.4458  0.5171 -0.0390
24342SOL    HW174467   7.232   3.795   7.126  0.4278 -0.1160 -1.3245
24342SOL    HW274468   7.086   3.770   7.094 -0.6314  1.7460  1.6928
24343SOL     OW74469   6.704   2.045   6.500 -0.4725  0.4087 -0.2169
24343SOL    HW174470   6.736   2.124   6.543  0.3077  0.1447 -0.2860
24343SOL    HW274471   6.627   2.073   6.451 -0.8677  0.8885  0.6632
24344SOL     OW74472   7.454   1.454   4.663  0.0467  0.3464 -0.3537
24344SOL    HW174473   7.540   1.495   4.671 -0.2412  1.2334 -1.5122
24344SOL    HW274474   7.447   1.430   4.570 -0.6520 -0.4023 -0.1226
24345SOL     OW74475   0.014   4.263   5.283  0.2715  0.5721  0.1214
24345SOL    HW174476  -0.054   4.197   5.271  0.4151  0.4062  0.2191
24345SOL    HW274477   0.008   4.317   5.204  1.2566 -0.5630 -0.7780
24346SOL     OW74478   2.086   6.313   8.652  0.1034 -0.2779  0.0852
24346SOL    HW174479   2.173   6.352   8.658 -0.7204  1.5911  0.6944
24346SOL    HW274480   2.055   6.338   8.565  0.2198 -1.0995 -0.2055
24347SOL     OW74481   2.314   6.603   9.757 -0.1495 -0.3554 -0.1358
24347SOL    HW174482   2.238   6.625   9.703 -1.4460 -0.1543  1.6403
24347SOL    HW274483   2.373   6.677   9.747 -1.6525  1.0695  0.8825
24348SOL     OW74484   4.421   3.259   7.632  0.4083  0.2440 -0.6272
24348SOL    HW174485   4.507   3.236   7.667 -0.1036 -0.0904  0.4334
24348SOL    HW274486   4.403   3.190   7.568  0.5112 -0.2181 -0.1637
24349SOL     OW74487   0.560   5.726   6.244  0.1942 -0.2258  0.0560
24349SOL    HW174488   0.632   5.780   6.210  0.0159  0.1257  0.2408
24349SOL    HW274489   0.529   5.678   6.167  2.1127 -2.1269  0.3488
24350SOL     OW74490   1.315   0.371   2.059  0.4116  0.2572  0.3249
24350SOL    HW174491   1.284   0.450   2.102 -2.2294  0.1101 -1.1282
24350SOL    HW274492   1.245   0.307   2.071  0.8549 -0.6899 -1.6573
24351SOL     OW74493   1.093   5.873   6.727 -0.0973 -0.0747  0.3170
24351SOL    HW174494   1.153   5.904   6.795 -1.2712 -1.2451  1.9635
24351SOL    HW274495   1.015   5.846   6.775 -0.4965 -2.1728 -1.3808
24352SOL     OW74496   3.119   1.145   1.059  0.1461 -0.5799 -0.3853
24352SOL    HW174497   3.095   1.236   1.048 -0.0643 -0.5706  0.1617
24352SOL    HW274498   3.160   1.121   0.975  2.7068  0.7833  0.3659
24353SOL     OW74499   0.275   7.948  11.920 -0.3177  0.5322 -0.6992
24353SOL    HW174500   0.269   7.906  11.834 -0.0090  1.4264 -1.1770
24353SOL    HW274501   0.301   7.878  11.980 -1.0730 -0.2193 -1.2337
24354SOL     OW74502   0.720   1.145   9.135 -0.0357 -0.1204 -0.3561
24354SOL    HW174503   0.780   1.219   9.122  0.5800 -0.7217 -1.0008
24354SOL    HW274504   0.744   1.083   9.067  0.9213 -1.8799  1.4692
24355SOL     OW74505   6.383   6.402  11.800  0.0093  0.4484  0.1586
24355SOL    HW174506   6.375   6.421  11.893 -0.0838  2.1974 -0.1598
24355SOL    HW274507   6.309   6.345  11.780  0.1632 -0.1314  1.1869
24356SOL     OW74508   7.589   2.734   2.919 -0.2465 -0.2249 -0.1388
24356SOL    HW174509   7.574   2.699   2.831 -0.1358  1.7420 -0.9813
24356SOL    HW274510   7.685   2.736   2.928 -0.2568 -0.3789  0.0122
24357SOL     OW74511   7.825   1.702   4.514  0.7684 -0.3805 -0.3186
24357SOL    HW174512   7.743   1.748   4.532  2.4913  2.4336  1.1575
24357SOL    HW274513   7.845   1.724   4.423 -0.4650 -1.7983 -0.9679
24358SOL     OW74514   2.906   3.263   5.744  0.5527  0.6525 -0.1468
24358SOL    HW174515   2.828   3.298   5.788  1.4543  1.4201  0.8945
24358SOL    HW274516   2.871   3.213   5.670 -0.8505  3.2693 -1.4047
24359SOL     OW74517   2.022   3.954   4.658  0.2188 -0.1278 -0.1049
24359SOL    HW174518   2.115   3.943   4.680 -0.1817 -1.3165  1.0851
24359SOL    HW274519   2.008   3.896   4.583  0.1333 -1.0554  0.6116
24360SOL     OW74520   0.642   4.844   7.072 -0.1403  0.1213  0.1584
24360SOL    HW174521   0.598   4.767   7.109  1.9321 -0.5949  1.3299
24360SOL    HW274522   0.603   4.918   7.118 -2.3704 -0.1283 -1.1778
24361SOL     OW74523   4.036   5.724  11.298  0.2078 -0.7832 -0.3797
24361SOL    HW174524   4.055   5.643  11.250  0.8788 -0.7402 -0.1958
24361SOL    HW274525   4.068   5.794  11.241  1.2742 -0.7440  0.2297
24362SOL     OW74526   7.243   4.310   4.531 -0.0819  0.0498 -0.1388
24362SOL    HW174527   7.251   4.403   4.548 -0.0957 -0.0315  0.3032
24362SOL    HW274528   7.333   4.278   4.526 -0.0821  0.0274  0.0170
24363SOL     OW74529   6.745   6.989   3.372 -0.4325 -0.4390  0.0514
24363SOL    HW174530   6.702   6.954   3.450 -0.7354 -0.2476 -0.0322
24363SOL    HW274531   6.798   7.062   3.404  0.0858 -0.8660  0.2032
24364SOL     OW74532   4.443   1.529   1.063  0.9034 -0.7762 -0.5275
24364SOL    HW174533   4.431   1.502   0.972  1.0207 -0.7304 -0.5563
24364SOL    HW274534   4.489   1.613   1.057 -0.9018  0.2796 -0.4984
24365SOL     OW74535   1.830   2.162   2.264 -0.1628 -0.0494  0.0795
24365SOL    HW174536   1.916   2.196   2.242  0.3394 -1.5763 -0.4363
24365SOL    HW274537   1.789   2.142   2.179 -1.1557  0.9434  0.3021
24366SOL     OW74538   7.090   2.498  10.981  0.1475  0.0336  0.3058
24366SOL    HW174539   7.108   2.528  10.892 -1.1266 -0.5029 -0.1539
24366SOL    HW274540   7.051   2.573  11.024  1.8947  0.6978  0.8296
24367SOL     OW74541   3.519   6.185   3.539 -0.3412 -0.3368 -0.5249
24367SOL    HW174542   3.530   6.213   3.630 -0.5025 -1.0243 -0.2952
24367SOL    HW274543   3.581   6.240   3.490  1.7601 -1.7909  0.3350
24368SOL     OW74544   6.321   4.752  12.462  0.1379 -0.4657 -0.0818
24368SOL    HW174545   6.300   4.665  12.429 -1.5792  0.6202 -2.1166
24368SOL    HW274546   6.320   4.808  12.385  2.4761  1.2089  0.9801
24369SOL     OW74547   5.469   3.119   0.878 -0.3445 -0.0085 -0.1838
24369SOL    HW174548   5.488   3.055   0.809 -2.8543 -0.4111 -0.5968
24369SOL    HW274549   5.482   3.071   0.959  0.9681 -0.0393 -0.3968
24370SOL     OW74550   2.025   7.900  10.658 -0.5695  0.1253  0.0036
24370SOL    HW174551   2.076   7.975  10.689 -1.4297  2.6579 -3.9829
24370SOL    HW274552   2.083   7.856  10.597 -1.0953 -0.7182  0.0965
24371SOL     OW74553   4.703   6.693   6.799 -0.3124 -0.4416  0.5454
24371SOL    HW174554   4.687   6.603   6.768 -1.2346 -0.5423  1.2764
24371SOL    HW274555   4.616   6.734   6.799  0.0835  0.4197  0.3467
24372SOL     OW74556   5.080   3.477   0.372  0.3811  0.2787  0.2370
24372SOL    HW174557   4.995   3.448   0.337  0.5690  0.0736 -0.0593
24372SOL    HW274558   5.127   3.396   0.391  0.8083  0.3789 -0.3390
24373SOL     OW74559   0.650   4.460   1.988 -0.0787  0.1767  1.0351
24373SOL    HW174560   0.626   4.455   1.896 -0.8944  0.0986  1.2469
24373SOL    HW274561   0.679   4.371   2.010 -2.0835 -0.4351  1.4252
24374SOL     OW74562   4.937   2.485   1.181  0.4338 -0.0210  0.2275
24374SOL    HW174563   4.885   2.408   1.204  0.0843  0.2943  0.4953
24374SOL    HW274564   4.942   2.483   1.085 -0.2447  0.0618  0.1892
24375SOL     OW74565   0.851   1.018   2.449  0.0420  0.3273  0.1493
24375SOL    HW174566   0.930   1.066   2.424 -0.1423  0.5064 -0.0948
24375SOL    HW274567   0.779   1.072   2.416 -0.1937  0.3348  0.6591
24376SOL     OW74568   7.282   6.143   4.400  0.2456  0.1727 -0.3411
24376SOL    HW174569   7.214   6.206   4.376  0.1926 -0.5818 -2.3865
24376SOL    HW274570   7.364   6.183   4.371  0.3681 -0.0867 -0.3609
24377SOL     OW74571   4.283   6.613   6.477  0.4088  0.5073  0.1874
24377SOL    HW174572   4.373   6.621   6.445 -0.0550  0.5822 -1.1429
24377SOL    HW274573   4.240   6.555   6.415 -1.5264  3.5931 -1.6298
24378SOL     OW74574   4.346   1.204   6.656 -0.6873  0.6432 -0.2222
24378SOL    HW174575   4.380   1.130   6.606 -0.3057  0.2894  0.5369
24378SOL    HW274576   4.263   1.172   6.692 -2.3332  1.7757 -2.7467
24379SOL     OW74577   7.580   0.955   7.747 -0.2831  0.1596  0.1598
24379SOL    HW174578   7.506   1.015   7.759 -0.4997 -0.4692  2.2630
24379SOL    HW274579   7.650   1.011   7.711 -1.2911  1.0818 -0.4248
24380SOL     OW74580   2.884   1.024   0.938 -0.3173  0.0813  0.6609
24380SOL    HW174581   2.900   0.968   0.862 -0.3998  0.2318  0.5308
24380SOL    HW274582   2.970   1.035   0.978 -0.4926 -1.1478  1.4096
24381SOL     OW74583   2.431   7.003   6.590 -0.4541 -0.0560 -0.0470
24381SOL    HW174584   2.492   7.005   6.664 -1.0588 -0.2527  0.4671
24381SOL    HW274585   2.487   7.008   6.513  0.1284  1.1747  0.4293
24382SOL     OW74586   3.668   6.630   4.375 -0.2443  0.2495  0.1722
24382SOL    HW174587   3.652   6.690   4.448 -1.8544  0.7042 -0.5109
24382SOL    HW274588   3.749   6.584   4.398  0.9541  2.5496  0.8148
24383SOL     OW74589   7.800   1.215   5.603 -0.6959 -0.0844 -0.0465
24383SOL    HW174590   7.755   1.275   5.544  0.2608 -0.1590 -0.8858
24383SOL    HW274591   7.841   1.272   5.668  2.0669  0.4747 -2.0845
24384SOL     OW74592   6.351   2.818   3.246 -0.4474  0.2229 -0.6365
24384SOL    HW174593   6.316   2.730   3.260 -1.2346  0.7098  0.7102
24384SOL    HW274594   6.433   2.820   3.295  0.4448 -0.2725 -2.0751
24385SOL     OW74595   2.748   7.853   8.324  0.0177  0.1867 -0.2523
24385SOL    HW174596   2.676   7.913   8.305  1.0214  1.3453 -0.4622
24385SOL    HW274597   2.734   7.779   8.264 -1.6005 -0.1407  0.4763
24386SOL     OW74598   4.686   0.819   7.462  0.0155 -0.4003  0.5935
24386SOL    HW174599   4.688   0.764   7.540  1.4339 -2.0899 -0.5480
24386SOL    HW274600   4.740   0.772   7.399  0.1243  1.6438 -0.9261
24387SOL     OW74601   2.339   4.708   7.977  0.6231  0.6575 -0.1373
24387SOL    HW174602   2.252   4.669   7.977  1.0534 -0.3534  0.0695
24387SOL    HW274603   2.338   4.770   7.904 -0.0241  0.0802 -0.6335
24388SOL     OW74604   4.959   6.099   2.370  0.4961 -0.1248  0.0690
24388SOL    HW174605   4.981   6.115   2.278  2.8820 -0.7652  0.4653
24388SOL    HW274606   4.899   6.025   2.368 -0.2047  0.4464 -1.0118
24389SOL     OW74607   3.979   5.797   6.937  0.0992 -0.4862 -0.7199
24389SOL    HW174608   4.018   5.740   6.871 -1.8344 -2.0142 -0.6261
24389SOL    HW274609   4.037   5.791   7.013  3.3462  2.6421 -2.6326
24390SOL     OW74610   0.153   2.904   3.923 -0.1849  0.1992 -0.4217
24390SOL    HW174611   0.219   2.842   3.892  0.6013  0.3224  0.9404
24390SOL    HW274612   0.097   2.919   3.846  0.7934 -0.6301 -1.3377
24391SOL     OW74613   6.104   1.925   8.993 -0.2877  0.0651 -0.4445
24391SOL    HW174614   6.164   1.997   8.978 -0.7582  0.7756  0.8846
24391SOL    HW274615   6.043   1.928   8.919 -0.3681  1.1149 -0.3499
24392SOL     OW74616   3.590   4.106  12.141 -0.1463  0.0963 -0.0310
24392SOL    HW174617   3.608   4.195  12.170  0.9258  0.1025 -0.6669
24392SOL    HW274618   3.600   4.109  12.046  1.7040 -1.0672  0.0672
24393SOL     OW74619   1.764   6.483   1.392 -0.0829  0.1941  0.0982
24393SOL    HW174620   1.802   6.473   1.479  1.2825 -0.6499 -0.5552
24393SOL    HW274621   1.819   6.548   1.350 -1.0748  1.0044  0.0345
24394SOL     OW74622   3.126   5.796   9.975 -0.3029 -0.3401 -0.2249
24394SOL    HW174623   3.134   5.706  10.007  1.1336 -1.0298 -2.2866
24394SOL    HW274624   3.215   5.831   9.978 -0.3146 -0.0391 -2.1348
24395SOL     OW74625   6.600   5.253   2.467 -0.0519 -0.1788  0.0396
24395SOL    HW174626   6.598   5.263   2.372  0.9510  0.9178  0.1050
24395SOL    HW274627   6.508   5.256   2.493 -0.2756  0.8509 -0.7812
24396SOL     OW74628   0.354   5.523   6.409  0.3842  0.6441  0.5869
24396SOL    HW174629   0.398   5.604   6.384 -0.6486  1.0378 -0.0037
24396SOL    HW274630   0.417   5.479   6.466  2.6397 -0.0397 -2.2025
24397SOL     OW74631   5.642   3.229  12.171 -0.1692 -0.5043  0.3829
24397SOL    HW174632   5.692   3.309  12.185 -0.4093  0.1776 -2.1422
24397SOL    HW274633   5.707   3.159  12.166  0.2199 -0.1591  0.6431
24398SOL     OW74634   7.589   2.933   7.507  0.0668 -0.2468  0.0502
24398SOL    HW174635   7.552   2.952   7.421 -1.1745  1.2586  0.8782
24398SOL    HW274636   7.551   2.848   7.531 -1.0847  0.2080 -0.0956
24399SOL     OW74637   2.268   2.610   3.293  0.5333  0.2289 -0.2182
24399SOL    HW174638   2.257   2.671   3.366  0.7699  0.4885 -0.3984
24399SOL    HW274639   2.352   2.568   3.309  0.2504 -0.2453  0.0463
24400SOL     OW74640   5.442   2.017   8.884  0.0674 -0.1175 -0.3823
24400SOL    HW174641   5.457   2.053   8.797  0.4594 -0.4730 -0.4631
24400SOL    HW274642   5.418   2.093   8.937 -0.7508  0.0168 -0.9252
24401SOL     OW74643   1.818   3.927   9.869  0.1102  0.8496 -0.4203
24401SOL    HW174644   1.860   3.950   9.786  2.3898 -0.3320  0.3159
24401SOL    HW274645   1.772   4.007   9.896  1.8835  2.2424 -1.3343
24402SOL     OW74646   5.989   1.001   2.188 -0.3001  0.2813  0.3657
24402SOL    HW174647   6.032   0.928   2.232 -1.3480 -0.0416  0.9052
24402SOL    HW274648   5.958   0.964   2.105  0.0034  0.3705  0.2131
24403SOL     OW74649   2.825   7.677   2.088  0.3880 -0.1559  0.4828
24403SOL    HW174650   2.794   7.764   2.112 -0.1936 -0.0114 -0.7056
24403SOL    HW274651   2.758   7.617   2.122 -0.3467  0.0355 -0.5606
24404SOL     OW74652   6.187   5.015   8.491  0.8910 -0.5273  0.6999
24404SOL    HW174653   6.166   4.939   8.436 -1.0882 -0.3327  1.1311
24404SOL    HW274654   6.261   4.986   8.544  1.4591 -1.4507 -0.5354
24405SOL     OW74655   2.192   3.486   8.242 -0.0654 -0.3093  0.3650
24405SOL    HW174656   2.148   3.401   8.249 -1.0094 -0.0488 -1.5974
24405SOL    HW274657   2.219   3.491   8.150  1.7158  0.7030  0.8996
24406SOL     OW74658   2.772   5.178  11.423  0.4901 -0.1135  0.6141
24406SOL    HW174659   2.731   5.117  11.362 -0.4309  0.6045  0.4921
24406SOL    HW274660   2.863   5.149  11.428  0.4026 -0.6493 -0.5151
24407SOL     OW74661   3.170   5.295   5.232  0.4047 -0.4509 -0.1649
24407SOL    HW174662   3.209   5.322   5.315 -1.5921  1.1860  0.3169
24407SOL    HW274663   3.078   5.321   5.238  0.0778 -0.6966 -2.7100
24408SOL     OW74664   3.441   2.624  10.071 -0.4535 -0.1556  0.0228
24408SOL    HW174665   3.469   2.632  10.162 -0.0949 -1.9941  0.1157
24408SOL    HW274666   3.359   2.672  10.066 -0.1150  0.5577  1.1382
24409SOL     OW74667   6.597   3.344   5.571  0.0314 -0.3484  0.2045
24409SOL    HW174668   6.540   3.414   5.539 -3.0147 -1.4065  2.7510
24409SOL    HW274669   6.571   3.267   5.521  1.1220 -0.3316 -0.4098
24410SOL     OW74670   3.170   0.359   7.345  0.1249 -0.4782  0.7298
24410SOL    HW174671   3.219   0.384   7.423  0.4583  0.5472  0.2125
24410SOL    HW274672   3.230   0.376   7.273 -0.6196 -0.2322  0.1592
24411SOL     OW74673   1.269   7.557   4.676 -0.0785 -0.4487 -0.0284
24411SOL    HW174674   1.299   7.474   4.639 -0.2950 -1.2916  1.5761
24411SOL    HW274675   1.303   7.556   4.766  0.1640  1.3500 -0.0620
24412SOL     OW74676   2.950   7.344   8.590 -0.2347  0.7413  0.2281
24412SOL    HW174677   2.882   7.405   8.617 -2.7016 -1.2500 -1.1119
24412SOL    HW274678   2.965   7.364   8.497 -0.3623 -0.0254  0.0357
24413SOL     OW74679   7.748   3.879   2.584 -0.0039 -0.0525  0.5431
24413SOL    HW174680   7.811   3.872   2.512 -2.2036 -1.7930 -1.3460
24413SOL    HW274681   7.800   3.865   2.662  2.1699 -0.1586 -0.8372
24414SOL     OW74682   5.874   7.033   7.820  0.4760 -0.2583  0.3197
24414SOL    HW174683   5.914   7.118   7.838  1.9393 -0.6440 -0.8634
24414SOL    HW274684   5.932   6.970   7.862  1.4781 -0.8609 -1.8351
24415SOL     OW74685   6.273   7.944   3.893 -0.2137  0.4226  0.6944
24415SOL    HW174686   6.366   7.961   3.907 -0.3974  1.1304  1.1175
24415SOL    HW274687   6.254   7.870   3.951  0.2232 -0.1598  0.1105
24416SOL     OW74688   5.516   3.575   3.481 -0.2613 -0.2448 -0.0036
24416SOL    HW174689   5.560   3.561   3.397 -0.6229 -2.2585  0.0947
24416SOL    HW274690   5.438   3.520   3.476  0.7792 -2.1466  2.4294
24417SOL     OW74691   5.475   6.464   5.228 -0.6112  0.0386  0.0624
24417SOL    HW174692   5.569   6.441   5.228 -0.2199  1.5025 -0.9512
24417SOL    HW274693   5.437   6.407   5.160 -0.1333  0.5711 -0.6675
24418SOL     OW74694   7.968   0.525  10.551 -0.6264 -0.4718 -0.1313
24418SOL    HW174695   8.020   0.446  10.539  0.3399 -0.2073  1.9350
24418SOL    HW274696   7.914   0.506  10.628 -0.8952  0.6255 -0.0402
24419SOL     OW74697   0.762   2.560   3.950  0.0600 -0.4023 -0.3095
24419SOL    HW174698   0.704   2.543   4.024  1.2632 -1.0125  0.5358
24419SOL    HW274699   0.765   2.477   3.902 -1.8178  0.3785 -1.9052
24420SOL     OW74700   5.867   6.090  10.587 -0.2361 -0.5294  0.4562
24420SOL    HW174701   5.922   6.148  10.640 -0.7812  0.4258  0.0061
24420SOL    HW274702   5.818   6.038  10.650  2.4282 -2.7319  0.9333
24421SOL     OW74703   5.875   4.746   3.896 -0.2465  0.3502  0.3429
24421SOL    HW174704   5.868   4.743   3.800  3.0162  0.2326 -0.0294
24421SOL    HW274705   5.882   4.839   3.916  0.2771  0.3318  0.2822
24422SOL     OW74706   1.501   0.900   3.860 -0.1820 -0.5887 -0.0121
24422SOL    HW174707   1.556   0.850   3.920 -0.5800  0.7844  1.5934
24422SOL    HW274708   1.412   0.877   3.885 -0.3505 -0.1906 -0.2460
24423SOL     OW74709   7.097   3.291   6.762  0.4405 -0.0743  0.2720
24423SOL    HW174710   7.175   3.238   6.748  0.3685  0.2641 -1.7410
24423SOL    HW274711   7.067   3.268   6.849  1.3927 -2.0494  0.1211
24424SOL     OW74712   2.178   2.405   7.133  0.1435  0.0192  0.0358
24424SOL    HW174713   2.122   2.451   7.196 -1.5243 -0.5438 -0.9693
24424SOL    HW274714   2.195   2.320   7.174 -1.8072 -0.7628 -0.6190
24425SOL     OW74715   1.455   6.794   5.814 -0.2779 -0.0000  0.2452
24425SOL    HW174716   1.409   6.871   5.781 -0.8598 -0.2245  0.5152
24425SOL    HW274717   1.519   6.829   5.875  0.2851  0.3572 -0.5377
24426SOL     OW74718   5.455   3.954   4.221  0.3977  0.5296 -0.1496
24426SOL    HW174719   5.414   3.901   4.289  2.7889 -1.5818 -0.1558
24426SOL    HW274720   5.509   4.017   4.268  1.3547 -0.3409 -0.0460
24427SOL     OW74721   0.921   2.683   6.228  0.0124 -0.0115  0.2176
24427SOL    HW174722   0.883   2.600   6.202  0.7515 -0.1403 -0.5177
24427SOL    HW274723   0.944   2.726   6.145  0.8043  0.3584  0.6129
24428SOL     OW74724   3.388   0.360   6.352 -0.3046 -0.2023 -0.1815
24428SOL    HW174725   3.380   0.406   6.269  0.2486 -0.7951 -0.5688
24428SOL    HW274726   3.443   0.418   6.405  1.6683 -1.0770 -1.1856
24429SOL     OW74727   4.342   1.011   5.564 -0.1319  0.2258  0.0706
24429SOL    HW174728   4.298   1.056   5.492  1.3620  0.2850 -0.8506
24429SOL    HW274729   4.385   0.936   5.522 -1.4300 -1.3111  1.3447
24430SOL     OW74730   1.293   2.846  11.538  0.1050 -0.0567 -0.2415
24430SOL    HW174731   1.283   2.755  11.567 -2.2793  0.0579 -0.5145
24430SOL    HW274732   1.371   2.845  11.482  1.4915 -1.4266  1.5874
24431SOL     OW74733   4.982   7.692   2.909 -0.5322 -0.0467  0.2767
24431SOL    HW174734   5.036   7.620   2.941  0.2383  0.1609 -0.5051
24431SOL    HW274735   4.985   7.683   2.813 -1.7285  0.0889  0.2156
24432SOL     OW74736   3.758   1.706   1.703  1.0132 -0.4042  0.2330
24432SOL    HW174737   3.776   1.798   1.686 -0.9953 -0.1723 -1.0640
24432SOL    HW274738   3.675   1.707   1.752 -0.0956 -1.5094 -1.4966
24433SOL     OW74739   3.645   1.849   1.346 -0.3530 -0.3282  0.5969
24433SOL    HW174740   3.680   1.833   1.433 -0.5210  0.1395  0.7494
24433SOL    HW274741   3.656   1.765   1.300 -0.1052 -0.5216  1.0079
24434SOL     OW74742   7.820   5.415   4.916 -0.0063 -0.3815 -0.3693
24434SOL    HW174743   7.890   5.468   4.877  0.8477 -0.2748  1.2158
24434SOL    HW274744   7.861   5.332   4.936 -0.3758 -0.3928  0.3930
24435SOL     OW74745   5.816   7.135   1.219 -0.1418 -0.2810 -0.1847
24435SOL    HW174746   5.758   7.126   1.294 -1.0062 -0.0487 -0.8172
24435SOL    HW274747   5.825   7.230   1.206  1.2408 -0.2754  0.5469
24436SOL     OW74748   3.693   5.813   1.072  0.1404  0.0120 -0.1342
24436SOL    HW174749   3.697   5.906   1.051 -0.7402  0.8406  2.8528
24436SOL    HW274750   3.650   5.773   0.997 -3.1346  2.6952  0.0664
24437SOL     OW74751   6.635   6.931   3.894 -0.7606 -0.1989  0.5588
24437SOL    HW174752   6.593   6.854   3.854 -0.4213  0.6489 -1.5911
24437SOL    HW274753   6.708   6.896   3.944 -0.9347 -1.3168  0.0590
24438SOL     OW74754   3.056   1.016   3.946 -0.3946  0.6389 -0.0364
24438SOL    HW174755   3.005   1.097   3.949 -1.0553  0.2813 -0.9603
24438SOL    HW274756   3.002   0.956   3.894 -0.3370 -0.7064  1.3867
24439SOL     OW74757   5.729   7.286   5.164  0.1468  0.3532  0.2101
24439SOL    HW174758   5.735   7.213   5.224  1.2353 -0.0580 -0.3771
24439SOL    HW274759   5.817   7.297   5.129 -0.5567  0.1474 -1.8070
24440SOL     OW74760   3.278   6.053   1.486  0.1579  0.0126  0.0598
24440SOL    HW174761   3.325   6.136   1.475 -1.8301  0.9582 -2.2022
24440SOL    HW274762   3.223   6.066   1.563  0.7152  0.3378  0.4081
24441SOL     OW74763   3.095   2.572  10.162  0.2416 -0.0346  1.0142
24441SOL    HW174764   3.157   2.633  10.122 -1.0215  0.7564  0.2122
24441SOL    HW274765   3.150   2.502  10.198  1.4956 -0.8309 -2.0961
24442SOL     OW74766   5.566   1.670   8.905 -0.3003 -0.4406  0.2102
24442SOL    HW174767   5.626   1.743   8.920 -0.8022 -0.0746  0.4763
24442SOL    HW274768   5.560   1.664   8.809  0.8438 -1.0656  0.1552
24443SOL     OW74769   3.837   0.005   2.885  0.6941 -0.1295 -0.1899
24443SOL    HW174770   3.816   0.027   2.976 -0.2954 -0.3773 -0.3482
24443SOL    HW274771   3.759  -0.039   2.853  0.9381  0.1912 -1.2454
24444SOL     OW74772   5.499   7.017   5.267 -0.5162 -0.3257  0.3816
24444SOL    HW174773   5.457   7.017   5.353 -0.9273 -3.5984  0.3355
24444SOL    HW274774   5.591   7.001   5.286 -0.6029 -1.0213  0.2637
24445SOL     OW74775   2.680   1.769   4.699  0.4067 -0.2672  0.3166
24445SOL    HW174776   2.610   1.824   4.735  0.9230  2.4158 -2.4347
24445SOL    HW274777   2.633   1.697   4.655 -0.4487 -0.1820  1.0541
24446SOL     OW74778   1.217   2.613   5.183 -0.0608  0.3645 -0.4677
24446SOL    HW174779   1.244   2.523   5.166  1.1061  0.8102 -1.0950
24446SOL    HW274780   1.124   2.607   5.205  0.4559 -1.2184  1.5365
24447SOL     OW74781   5.623   4.933   1.250 -0.1798  0.2063 -0.2636
24447SOL    HW174782   5.682   4.858   1.263 -0.2305  0.2141  0.0161
24447SOL    HW274783   5.619   4.944   1.155 -0.3518 -0.2950 -0.3192
24448SOL     OW74784   6.369   6.578   3.106 -0.4034  0.2312 -0.0902
24448SOL    HW174785   6.398   6.504   3.160 -0.2595  1.5781  1.7924
24448SOL    HW274786   6.450   6.622   3.082 -0.4435 -0.5358 -1.7607
24449SOL     OW74787   2.209   2.283   9.435  0.3265  0.1395 -0.4853
24449SOL    HW174788   2.251   2.283   9.349 -0.4895  1.0845 -0.9151
24449SOL    HW274789   2.208   2.376   9.461 -2.3424  0.3387 -0.9780
24450SOL     OW74790   2.149   3.627  10.009  0.9215 -0.1008 -0.4120
24450SOL    HW174791   2.139   3.619   9.914  0.4584  0.8009 -0.4512
24450SOL    HW274792   2.233   3.671  10.020  0.4308  0.8816 -0.4667
24451SOL     OW74793   4.241   2.761   5.859  0.2869 -0.0925 -0.0281
24451SOL    HW174794   4.225   2.679   5.812  0.3486  1.1018 -2.2445
24451SOL    HW274795   4.335   2.775   5.850  0.6452 -0.7076  2.0694
24452SOL     OW74796   1.534   7.198  10.473 -0.1362  0.3647 -0.2437
24452SOL    HW174797   1.530   7.293  10.462 -1.1852  0.6751  2.0661
24452SOL    HW274798   1.455   7.177  10.523  0.4654 -1.6174 -0.0527
24453SOL     OW74799   7.633   0.590   8.091 -0.2896 -0.2703 -0.2443
24453SOL    HW174800   7.546   0.583   8.053 -0.1115  0.3515 -0.7794
24453SOL    HW274801   7.675   0.662   8.044 -1.0830  2.6071  3.0906
24454SOL     OW74802   4.193   0.905   2.572 -0.5488  0.1848  0.1759
24454SOL    HW174803   4.125   0.839   2.584  0.2725 -0.5743  0.7279
24454SOL    HW274804   4.218   0.930   2.661 -0.4275  0.8036 -0.0251
24455SOL     OW74805   0.663   6.305   8.702  0.0117  0.0494 -0.5333
24455SOL    HW174806   0.616   6.229   8.667 -0.1903  0.1929 -0.5780
24455SOL    HW274807   0.665   6.290   8.797 -1.6193  0.8464 -0.3218
24456SOL     OW74808   0.343   1.811  12.132 -0.2176  0.2472 -0.0740
24456SOL    HW174809   0.338   1.837  12.040 -0.9711 -0.5221 -0.2588
24456SOL    HW274810   0.430   1.772  12.141 -0.0227  0.5994 -0.3811
24457SOL     OW74811   3.205   5.420   3.514  0.5788  0.0330 -0.6790
24457SOL    HW174812   3.245   5.333   3.515 -0.6113 -0.5581 -1.5000
24457SOL    HW274813   3.219   5.454   3.603 -1.2046 -2.0939  0.5182
24458SOL     OW74814   2.398   7.095   7.087  0.4060 -0.0158 -0.6134
24458SOL    HW174815   2.439   7.010   7.099 -0.0662 -0.1378  0.2083
24458SOL    HW274816   2.416   7.117   6.996 -1.5401 -2.1264 -1.6224
24459SOL     OW74817   1.526   7.262   3.567 -0.1154 -0.3664 -0.3167
24459SOL    HW174818   1.533   7.351   3.532  1.4613 -0.4585 -0.2783
24459SOL    HW274819   1.512   7.274   3.661 -0.4867 -0.1647 -0.3941
24460SOL     OW74820   3.067   1.467   8.355 -0.6797 -0.1363 -0.2581
24460SOL    HW174821   2.982   1.457   8.313 -0.3142  0.6192 -1.2261
24460SOL    HW274822   3.065   1.554   8.394  0.5523  1.0398 -2.5811
24461SOL     OW74823   1.504   5.961   8.971 -0.3322  0.2558  0.4114
24461SOL    HW174824   1.492   5.874   9.007 -0.8987  0.4060  0.5973
24461SOL    HW274825   1.454   6.019   9.030 -3.1182  0.2611 -1.7224
24462SOL     OW74826   7.745   2.807   0.875  0.5668 -0.1696  0.1337
24462SOL    HW174827   7.750   2.880   0.937  0.0929  0.9557 -1.1093
24462SOL    HW274828   7.811   2.745   0.906  0.3870  0.3754  1.7168
24463SOL     OW74829   6.984   3.438   8.550  0.2855  0.1319  0.2412
24463SOL    HW174830   7.078   3.422   8.562  0.4896  0.4551 -0.8634
24463SOL    HW274831   6.953   3.362   8.501  0.2112  0.6130 -0.4577
24464SOL     OW74832   2.673   7.753   8.091  0.5243  0.0164  0.2819
24464SOL    HW174833   2.672   7.659   8.080  0.5683  0.0058  0.3609
24464SOL    HW274834   2.733   7.785   8.024 -0.7176  0.1380 -0.7909
24465SOL     OW74835   7.023   4.558  11.093  0.3544 -0.1249  0.2094
24465SOL    HW174836   7.034   4.463  11.097 -0.8413 -0.2660  0.7339
24465SOL    HW274837   7.076   4.591  11.166  1.5279 -0.2810 -0.5365
24466SOL     OW74838   2.057   3.167   0.461  0.0906 -0.6201 -0.4839
24466SOL    HW174839   2.126   3.129   0.407 -0.8569 -0.8537 -1.5580
24466SOL    HW274840   2.037   3.098   0.525  0.9883 -0.4684 -0.0280
24467SOL     OW74841   1.427   0.976   8.125 -0.0655  0.1260 -0.2085
24467SOL    HW174842   1.450   1.057   8.171 -1.0115 -0.0005  0.4957
24467SOL    HW274843   1.334   0.984   8.107 -0.4148 -1.2626  0.8147
24468SOL     OW74844   6.534   2.929   5.730 -0.4319  0.3126 -0.3082
24468SOL    HW174845   6.524   3.023   5.742  1.0083  0.4912 -0.3827
24468SOL    HW274846   6.558   2.896   5.817  0.9968  0.3094 -0.6836
24469SOL     OW74847   1.589   4.995  11.951  0.2920 -0.1614 -0.2651
24469SOL    HW174848   1.523   5.029  12.011 -0.6733  1.4011 -2.0964
24469SOL    HW274849   1.556   4.909  11.925 -0.6354  0.2706 -0.5486
24470SOL     OW74850   7.779   3.713   7.837  0.2411  0.1941 -0.4126
24470SOL    HW174851   7.766   3.710   7.932 -0.1590 -0.9926 -0.4921
24470SOL    HW274852   7.691   3.722   7.801  0.2266 -1.0884 -0.7220
24471SOL     OW74853   0.284   3.037   9.696  0.0624 -0.3472  1.0835
24471SOL    HW174854   0.278   2.971   9.765 -2.1054 -1.5553 -0.1726
24471SOL    HW274855   0.218   3.102   9.718 -0.6350 -0.7325  0.1863
24472SOL     OW74856   5.290   0.681  10.008  0.4196 -0.0373  0.2926
24472SOL    HW174857   5.291   0.607  10.068 -2.5737 -0.2193  0.2485
24472SOL    HW274858   5.267   0.642   9.923 -0.2623  0.7998  0.0796
24473SOL     OW74859   3.572   4.883   0.653 -0.1518  0.1187 -0.5510
24473SOL    HW174860   3.537   4.934   0.580 -0.3371  0.1964 -0.4094
24473SOL    HW274861   3.597   4.800   0.614 -0.4300  0.0885 -0.6682
24474SOL     OW74862   5.090   1.355   2.662 -0.4362 -0.1721  0.0978
24474SOL    HW174863   5.061   1.288   2.600 -0.8024  1.4568 -1.5822
24474SOL    HW274864   5.033   1.342   2.738 -1.1221 -1.1747 -0.5501
24475SOL     OW74865   3.144   2.339   5.205  0.1509  0.3880  0.1507
24475SOL    HW174866   3.235   2.317   5.191 -0.6223 -1.2146 -3.3865
24475SOL    HW274867   3.115   2.378   5.122 -2.3532  1.0325  1.2136
24476SOL     OW74868   7.008   2.284   3.537 -0.2892  0.0283 -0.1842
24476SOL    HW174869   6.951   2.360   3.533 -2.4425 -1.3410  1.9103
24476SOL    HW274870   6.950   2.209   3.523  1.1247 -1.4042  1.1497
24477SOL     OW74871   0.022   6.895   3.817 -0.3471  0.9284  0.0729
24477SOL    HW174872   0.109   6.895   3.778 -0.6275  0.2550 -0.5905
24477SOL    HW274873   0.037   6.908   3.911  0.3198  2.9129 -0.2747
24478SOL     OW74874   4.926   1.870   4.055  0.4538 -0.4450  0.0754
24478SOL    HW174875   4.905   1.961   4.076  0.8014 -0.3448 -0.0193
24478SOL    HW274876   4.919   1.866   3.960  0.6340 -0.4713  0.0641
24479SOL     OW74877   2.550   2.826   8.520 -0.1612  0.5234 -0.0635
24479SOL    HW174878   2.507   2.795   8.440 -0.5779 -0.5457  0.5545
24479SOL    HW274879   2.616   2.759   8.539 -0.9689  0.0694  1.2135
24480SOL     OW74880   4.634   0.363  11.193 -0.1408 -0.1218 -0.0308
24480SOL    HW174881   4.667   0.400  11.274  0.4295 -0.7574  0.0382
24480SOL    HW274882   4.678   0.412  11.124  0.2510 -0.3406  0.0582
24481SOL     OW74883   6.968   6.985  11.988  0.3718 -0.2063 -0.5020
24481SOL    HW174884   7.036   6.917  11.987  1.0316  0.3331  1.5779
24481SOL    HW274885   6.888   6.939  12.013  0.6481 -0.3683  0.1066
24482SOL     OW74886   0.559   4.863   4.468 -0.3656 -0.0858  0.2495
24482SOL    HW174887   0.652   4.882   4.484 -0.0092  0.8695 -2.3411
24482SOL    HW274888   0.513   4.941   4.499 -0.2694 -0.3457  1.0708
24483SOL     OW74889   2.340   0.880   4.574 -0.0679 -0.5808 -0.4192
24483SOL    HW174890   2.325   0.939   4.647  2.6020 -1.4617  0.9711
24483SOL    HW274891   2.270   0.815   4.580 -1.0647  0.5088  0.0765
24484SOL     OW74892   7.451   7.318   3.269 -0.1360 -0.3329  0.5578
24484SOL    HW174893   7.356   7.312   3.256 -0.5501  1.6008  2.2217
24484SOL    HW274894   7.469   7.257   3.340 -0.3537  0.1589  1.0455
24485SOL     OW74895   5.611   5.132   8.386  0.1866  0.1587  0.3026
24485SOL    HW174896   5.617   5.063   8.451 -0.8886  0.8136  1.1231
24485SOL    HW274897   5.700   5.165   8.377  0.3340  0.1329  1.5361
24486SOL     OW74898   1.415   3.612   0.616  0.8804  0.5949 -0.1055
24486SOL    HW174899   1.357   3.682   0.645 -0.4734 -0.9716  1.1044
24486SOL    HW274900   1.464   3.587   0.694  2.5142  1.2071 -0.8841
24487SOL     OW74901   3.327   5.770   2.603  0.1895  0.0702 -0.1591
24487SOL    HW174902   3.309   5.834   2.673 -0.9745  0.3209 -0.6563
24487SOL    HW274903   3.418   5.785   2.580  0.1334  1.0992  0.1999
24488SOL     OW74904   4.765   2.309   8.538  0.5214  0.7203 -0.0650
24488SOL    HW174905   4.790   2.235   8.593  1.8340  0.8380 -0.4799
24488SOL    HW274906   4.751   2.380   8.600  0.4968  0.4520  0.2399
24489SOL     OW74907   0.827   6.410   3.001  0.0030 -0.0773  0.1795
24489SOL    HW174908   0.798   6.420   2.910  2.1543 -1.6721 -0.7592
24489SOL    HW274909   0.782   6.331   3.030  0.5077 -0.4584 -0.0520
24490SOL     OW74910   0.122   6.763   0.751  0.2493 -0.3361 -0.0230
24490SOL    HW174911   0.150   6.683   0.707  0.5597  0.4497 -1.3194
24490SOL    HW274912   0.203   6.804   0.780  0.1783  0.0083 -0.2956
24491SOL     OW74913   4.140   6.590   4.721  0.2460  0.1066  0.1471
24491SOL    HW174914   4.127   6.684   4.707  0.4506  0.2210  0.7235
24491SOL    HW274915   4.230   6.574   4.693 -0.0597 -0.0927 -0.7880
24492SOL     OW74916   2.120   0.164  11.073  0.4733 -0.1251  0.3348
24492SOL    HW174917   2.195   0.107  11.086  2.0110  1.3899 -1.3704
24492SOL    HW274918   2.157   0.250  11.057 -1.4812  0.3995 -2.1641
24493SOL     OW74919   5.671   4.205   1.187  0.7045  0.6691  0.3471
24493SOL    HW174920   5.755   4.173   1.221  0.0667 -0.5483  0.8793
24493SOL    HW274921   5.682   4.206   1.092  1.2325  0.2531  0.3974
24494SOL     OW74922   4.093   7.502   9.792  0.0077  0.2068  0.2722
24494SOL    HW174923   4.037   7.574   9.763  2.0517  1.5727 -0.5616
24494SOL    HW274924   4.108   7.519   9.885 -1.5798 -0.6502  0.7135
24495SOL     OW74925   6.806   0.044  11.144  0.6686  0.6653 -0.3774
24495SOL    HW174926   6.811   0.013  11.234 -0.5000  2.0720  0.2158
24495SOL    HW274927   6.866   0.118  11.141  0.0168  1.2050 -0.4661
24496SOL     OW74928   6.391   4.593   0.893  0.1568 -0.0828  0.3271
24496SOL    HW174929   6.392   4.626   0.983 -0.5417  0.3496  0.1824
24496SOL    HW274930   6.458   4.525   0.892  0.7244  0.4547  0.9674
24497SOL     OW74931   0.132   2.398   5.146 -0.2064  0.4038  0.1645
24497SOL    HW174932   0.199   2.330   5.147  0.8376  1.3852  2.1292
24497SOL    HW274933   0.174   2.474   5.185 -1.8395  1.7202 -0.5134
24498SOL     OW74934   6.302   6.954   2.295 -0.2952 -0.0375  0.2816
24498SOL    HW174935   6.331   7.019   2.231  2.5582  1.4590  2.8677
24498SOL    HW274936   6.321   6.870   2.253  2.1132  0.8857 -0.6518
24499SOL     OW74937   7.967   0.034   4.844 -0.5511 -0.0226 -0.6446
24499SOL    HW174938   7.888   0.035   4.898  0.7281  3.5861  1.4870
24499SOL    HW274939   7.953   0.104   4.780 -0.1636 -1.2787 -2.1764
24500SOL     OW74940   5.518   4.076  11.971 -0.3497  0.1929 -0.0473
24500SOL    HW174941   5.591   4.021  12.002 -0.6510 -0.0410  0.2599
24500SOL    HW274942   5.448   4.013  11.952 -1.2069  0.5494  1.7033
24501SOL     OW74943   2.979   4.165   5.394 -0.2824 -0.4043  0.2475
24501SOL    HW174944   3.050   4.104   5.416 -1.5672 -1.6811  1.0056
24501SOL    HW274945   2.962   4.148   5.301  0.2666 -0.2340  0.1132
24502SOL     OW74946   6.410   7.193   9.671 -0.0077 -0.2693  0.1006
24502SOL    HW174947   6.340   7.238   9.623  1.3344  0.7200 -1.0119
24502SOL    HW274948   6.388   7.207   9.763 -1.0695  0.3449 -0.2166
24503SOL     OW74949   7.458   0.001   7.211  0.6958 -0.1814  0.2997
24503SOL    HW174950   7.506   0.069   7.259  0.8189  1.1248 -1.5851
24503SOL    HW274951   7.371   0.000   7.251  0.0413  2.5212 -0.8479
24504SOL     OW74952   4.618   4.589  11.173  0.4049  0.5180 -0.0966
24504SOL    HW174953   4.666   4.615  11.095  1.7294 -0.7819  0.2213
24504SOL    HW274954   4.664   4.633  11.245  0.9577 -0.4731  0.1804
24505SOL     OW74955   7.132   5.056   3.489 -0.1144 -0.2339  0.0388
24505SOL    HW174956   7.052   5.094   3.524  0.0541 -0.4332  0.6484
24505SOL    HW274957   7.123   4.962   3.505  1.4412 -0.0384  2.7124
24506SOL     OW74958   2.920   5.298   0.098  0.6359 -0.9697 -0.2716
24506SOL    HW174959   2.859   5.243   0.148  0.8987 -0.8683  0.1701
24506SOL    HW274960   2.870   5.327   0.022 -0.3834  0.3594  0.8505
24507SOL     OW74961   1.576   7.809   3.594 -0.5088  0.0524 -0.6617
24507SOL    HW174962   1.594   7.798   3.687 -0.9363 -6.1309 -0.9103
24507SOL    HW274963   1.488   7.847   3.591  0.3587  2.4685  1.2117
24508SOL     OW74964   1.224   5.359   1.116  0.5028 -0.2905 -0.6202
24508SOL    HW174965   1.307   5.399   1.090 -0.3058  0.0955 -2.8748
24508SOL    HW274966   1.157   5.412   1.073 -0.9066 -0.9126  0.6978
24509SOL     OW74967   7.977   0.899   9.722  0.2108  0.5448  0.0272
24509SOL    HW174968   8.011   0.816   9.755 -2.0482 -0.6013 -0.2700
24509SOL    HW274969   8.045   0.932   9.663  1.0947 -1.2058  0.0100
24510SOL     OW74970   3.840   3.175   4.704 -0.1670 -0.5669  0.4379
24510SOL    HW174971   3.836   3.266   4.734 -1.5559 -0.6814  0.6606
24510SOL    HW274972   3.851   3.182   4.609 -1.2890 -0.1508  0.3293
24511SOL     OW74973   3.407   2.604   5.272  0.4196 -0.6218 -0.0916
24511SOL    HW174974   3.351   2.596   5.350 -0.8750 -1.4602 -1.0727
24511SOL    HW274975   3.409   2.698   5.254  0.8234 -0.4060  1.0072
24512SOL     OW74976   2.178   7.797   1.994 -0.7944 -0.5429  0.4057
24512SOL    HW174977   2.131   7.771   2.073 -1.0452  0.9720  0.7789
24512SOL    HW274978   2.117   7.853   1.947 -0.0882 -0.1736 -0.0982
24513SOL     OW74979   6.748   3.011   9.411 -0.2890 -0.4816  0.2886
24513SOL    HW174980   6.727   3.072   9.482 -1.2856 -2.4616  1.7934
24513SOL    HW274981   6.695   3.041   9.337 -0.9341  0.3444  1.0585
24514SOL     OW74982   6.248   0.432   4.095  0.2361  0.5446  0.1947
24514SOL    HW174983   6.186   0.391   4.035 -0.7484  0.4963  1.1913
24514SOL    HW274984   6.260   0.520   4.061  2.5746 -0.5253 -2.1216
24515SOL     OW74985   0.663   0.270   2.074  0.2793  0.1072 -0.5093
24515SOL    HW174986   0.633   0.203   2.013 -0.5069  0.8029 -0.9236
24515SOL    HW274987   0.592   0.277   2.138  0.6986  0.0060 -0.0375
24516SOL     OW74988   3.446   3.272   1.865  0.0966 -0.0278 -0.1333
24516SOL    HW174989   3.370   3.227   1.827  0.0458 -2.7225  2.7400
24516SOL    HW274990   3.520   3.213   1.847  0.9140  0.9441 -0.0533
24517SOL     OW74991   6.141   0.835  12.025 -0.3239  0.1385 -0.3991
24517SOL    HW174992   6.092   0.896  11.971 -0.2342 -0.7311 -1.4842
24517SOL    HW274993   6.128   0.867  12.115 -1.2662  1.0361 -0.8388
24518SOL     OW74994   0.360   2.063  10.519 -0.7563  0.2657  0.7408
24518SOL    HW174995   0.451   2.055  10.493 -0.9680 -0.1479  0.1029
24518SOL    HW274996   0.337   2.154  10.501 -1.5814 -0.5046 -2.9197
24519SOL     OW74997   3.008   2.070   7.387  0.4760  0.2253  0.0413
24519SOL    HW174998   2.930   2.120   7.411 -1.5759 -1.6102 -2.3112
24519SOL    HW274999   3.077   2.104   7.444 -2.1168  1.6052  2.5875
24520SOL     OW75000   7.863   3.879   5.845 -0.0248 -0.5456  0.1469
24520SOL    HW175001   7.922   3.933   5.792  1.2675 -0.4025  1.6795
24520SOL    HW275002   7.844   3.933   5.922 -0.6096 -1.3670  0.5929
24521SOL     OW75003   7.763   7.298   7.579 -0.1229 -0.0116  0.6355
24521SOL    HW175004   7.729   7.299   7.489 -1.0793 -1.1967  0.9616
24521SOL    HW275005   7.858   7.311   7.569 -0.3481  0.9338 -0.4601
24522SOL     OW75006   2.060   2.418   0.707  0.0253 -0.3516  0.0302
24522SOL    HW175007   2.155   2.434   0.700 -0.0962  0.6788  0.6188
24522SOL    HW275008   2.040   2.365   0.630  0.7590  0.9796 -1.1305
24523SOL     OW75009   7.088   3.498  11.519  0.2724  0.2340  0.1488
24523SOL    HW175010   7.030   3.533  11.453 -0.4920  1.4574  1.4249
24523SOL    HW275011   7.052   3.411  11.540  0.1318  0.1279 -0.5329
24524SOL     OW75012   2.697   0.598   5.180 -0.0788 -0.5449  0.3440
24524SOL    HW175013   2.709   0.626   5.271 -0.2077 -0.8011  0.4394
24524SOL    HW275014   2.751   0.519   5.172  1.0051  0.2136 -0.1735
24525SOL     OW75015   6.253   7.457  10.532 -0.4595 -0.0067 -0.0451
24525SOL    HW175016   6.281   7.547  10.514  0.0723  0.0231  0.8793
24525SOL    HW275017   6.327   7.418  10.580 -0.6852 -0.9352 -0.4343
24526SOL     OW75018   7.331   6.721  12.059  0.1780  0.4153 -0.4088
24526SOL    HW175019   7.344   6.800  12.111 -0.5400 -0.9598  2.0256
24526SOL    HW275020   7.261   6.673  12.104  0.6605 -1.6811 -1.7046
24527SOL     OW75021   6.923   2.982   1.656  0.6107 -0.2780 -0.0491
24527SOL    HW175022   6.899   3.008   1.744  1.7396  0.2830  0.1080
24527SOL    HW275023   6.916   3.063   1.604  0.7794 -0.4090 -0.2806
24528SOL     OW75024   3.832   4.648   6.340  0.2847  0.5510 -0.1166
24528SOL    HW175025   3.798   4.561   6.316 -0.2456  0.6442  0.2941
24528SOL    HW275026   3.877   4.634   6.423 -0.0263  0.7270  0.0781
24529SOL     OW75027   7.342   4.398   7.083  0.2258  0.2528  0.1046
24529SOL    HW175028   7.427   4.441   7.077  0.7791 -0.7932  0.3109
24529SOL    HW275029   7.358   4.319   7.135 -0.7417 -0.2833 -0.3879
24530SOL     OW75030   2.126   3.428  11.392 -0.2687  0.1153  0.1903
24530SOL    HW175031   2.051   3.419  11.333 -1.4880 -0.4619  1.7628
24530SOL    HW275032   2.152   3.338  11.411  0.1020  0.2958  0.5511
24531SOL     OW75033   7.267   3.443  12.295 -0.0750  0.1993 -0.1556
24531SOL    HW175034   7.193   3.413  12.348 -0.1697  1.1339  0.2656
24531SOL    HW275035   7.273   3.536  12.314 -0.1563  0.5745 -1.8582
24532SOL     OW75036   3.876   4.010   6.553  0.1182  0.1127 -0.3175
24532SOL    HW175037   3.934   3.935   6.567  1.7039  0.9468 -1.9867
24532SOL    HW275038   3.934   4.086   6.553 -0.9637  0.9975 -1.8554
24533SOL     OW75039   2.248   0.748  10.212 -0.0236  0.5716  0.1310
24533SOL    HW175040   2.330   0.748  10.162 -0.2275 -1.7211 -0.3165
24533SOL    HW275041   2.276   0.740  10.304  0.2708  1.2417  0.1043
24534SOL     OW75042   2.725   4.692   6.692 -0.0393  0.1570 -0.1004
24534SOL    HW175043   2.680   4.610   6.711  1.2298 -0.1765  1.7400
24534SOL    HW275044   2.657   4.759   6.695 -0.6861 -0.5221  0.9991
24535SOL     OW75045   5.251   5.522   8.781 -0.1461 -0.2700 -0.1696
24535SOL    HW175046   5.332   5.499   8.827 -0.0550 -1.0759 -0.7143
24535SOL    HW275047   5.196   5.444   8.790 -1.0487  0.4206  0.5668
24536SOL     OW75048   1.809   2.644   0.327 -0.0568  0.7622  0.5690
24536SOL    HW175049   1.858   2.713   0.281  1.0237  1.1504  2.2133
24536SOL    HW275050   1.873   2.574   0.339 -1.0822 -0.4976 -0.8662
24537SOL     OW75051   2.255   2.405   4.994  0.0110  0.1066 -0.3954
24537SOL    HW175052   2.207   2.390   4.912 -0.2644  1.1475 -0.4421
24537SOL    HW275053   2.271   2.500   4.995 -1.3079  0.3554  1.4554
24538SOL     OW75054   6.107   5.537   4.579  0.5091  0.0167 -0.1985
24538SOL    HW175055   6.057   5.563   4.502  1.0281 -2.0494 -1.3009
24538SOL    HW275056   6.178   5.600   4.584  1.5858 -0.8669 -2.6177
24539SOL     OW75057   3.778   6.065   4.119 -0.1010 -0.1804 -0.0849
24539SOL    HW175058   3.784   5.996   4.186 -1.5862  0.1771  0.4662
24539SOL    HW275059   3.853   6.121   4.136 -1.1916  0.7132  2.2877
24540SOL     OW75060   5.023   6.518   1.614 -0.0387  0.1066  0.7507
24540SOL    HW175061   4.992   6.477   1.534 -0.2980  1.8824 -0.1175
24540SOL    HW275062   5.004   6.455   1.683 -0.8990 -0.9709 -0.4326
24541SOL     OW75063   3.861   2.732   6.565  0.1989 -0.2403 -0.1568
24541SOL    HW175064   3.809   2.733   6.484  0.1699 -1.3635 -0.1721
24541SOL    HW275065   3.931   2.794   6.550 -0.5946  0.5926 -0.5084
24542SOL     OW75066   6.875   1.230   2.163 -0.0308  0.0299 -0.0167
24542SOL    HW175067   6.816   1.287   2.113 -0.7311 -1.1460 -0.5749
24542SOL    HW275068   6.943   1.289   2.195 -0.9796  1.2666 -0.1617
24543SOL     OW75069   5.803   3.502   4.636 -0.1013  0.2598 -0.0356
24543SOL    HW175070   5.723   3.537   4.675  0.2606  2.5220 -1.1494
24543SOL    HW275071   5.873   3.559   4.668  0.7228 -0.1536 -1.0226
24544SOL     OW75072   5.683   4.532   3.054  0.6223  0.4293 -0.0466
24544SOL    HW175073   5.656   4.469   3.121  1.8007 -1.2159 -1.0594
24544SOL    HW275074   5.603   4.581   3.034 -0.9253 -2.1863 -0.7350
24545SOL     OW75075   2.189   4.706   7.606 -0.5542  0.1351  0.0863
24545SOL    HW175076   2.259   4.762   7.641 -1.4065  1.9985 -1.0150
24545SOL    HW275077   2.217   4.617   7.627  2.0196  0.8153 -0.1024
24546SOL     OW75078   1.016   7.535   6.968 -0.4425 -0.2469 -0.3083
24546SOL    HW175079   0.932   7.582   6.969 -0.3786 -0.1099  1.3953
24546SOL    HW275080   0.992   7.444   6.951 -0.9967 -0.2932  0.6642
24547SOL     OW75081   4.994   3.665   7.073 -0.8101  0.2203 -0.2335
24547SOL    HW175082   5.071   3.719   7.089 -0.3586 -0.8173  1.3106
24547SOL    HW275083   4.920   3.722   7.096 -0.3762  0.4033  0.7408
24548SOL     OW75084   6.033   3.384   1.937 -0.3681 -0.4041 -0.3860
24548SOL    HW175085   5.943   3.354   1.951  0.5025 -3.0396  0.1073
24548SOL    HW275086   6.088   3.312   1.967  1.9596  1.1836 -0.5075
24549SOL     OW75087   0.069   5.793   6.855  1.1651 -0.0127  0.4961
24549SOL    HW175088   0.159   5.815   6.877  2.0033 -1.8244 -0.9182
24549SOL    HW275089   0.058   5.702   6.883 -0.1161  0.0616  0.3076
24550SOL     OW75090   6.664   3.605   0.759 -0.8869  0.5897  0.2308
24550SOL    HW175091   6.735   3.639   0.813  0.6987 -1.3204 -0.5299
24550SOL    HW275092   6.618   3.543   0.815 -0.7423  0.3871  0.1256
24551SOL     OW75093   6.083   0.715   5.352 -0.2459  0.0082 -0.6289
24551SOL    HW175094   6.087   0.790   5.412 -0.5025 -0.1550 -0.4094
24551SOL    HW275095   6.132   0.646   5.397 -0.9428 -0.3023 -0.3387
24552SOL     OW75096   2.029   0.802   4.239  0.0832 -0.7070  0.5976
24552SOL    HW175097   2.038   0.837   4.328  0.5359  1.7194 -0.3278
24552SOL    HW275098   2.111   0.754   4.225  0.0773 -0.9810  1.4225
24553SOL     OW75099   7.343   1.645   8.137  0.6131  0.2308  0.0477
24553SOL    HW175100   7.407   1.666   8.068 -0.8696 -0.2676 -1.5577
24553SOL    HW275101   7.312   1.731   8.167  1.6052  0.4623  0.4565
24554SOL     OW75102   6.257   2.533   4.595  0.8765 -0.6287  0.4286
24554SOL    HW175103   6.213   2.549   4.679 -0.8960  0.1968 -0.5990
24554SOL    HW275104   6.231   2.444   4.571 -0.1006 -0.2196 -0.0743
24555SOL     OW75105   2.803   6.749   4.499 -0.8856 -0.0657  0.0934
24555SOL    HW175106   2.867   6.724   4.566  1.2921  0.5123 -1.6447
24555SOL    HW275107   2.774   6.665   4.461  2.3277 -0.3614 -2.0933
24556SOL     OW75108   5.598   0.857   9.984 -0.0234  0.2003  0.4781
24556SOL    HW175109   5.539   0.933   9.975 -1.0526 -0.7380 -1.1384
24556SOL    HW275110   5.685   0.893   9.968 -0.5511  0.9719 -0.8931
24557SOL     OW75111   6.524   2.969   4.849  0.4112 -0.0669 -0.0061
24557SOL    HW175112   6.575   3.045   4.821  0.4268  0.1890  0.7064
24557SOL    HW275113   6.569   2.894   4.809  0.8318  0.2343 -0.0965
24558SOL     OW75114   3.310   7.915  12.290  0.0263  0.8102 -0.1714
24558SOL    HW175115   3.283   7.925  12.198  0.5628  0.8451 -0.3264
24558SOL    HW275116   3.394   7.960  12.295  1.3484 -1.5012 -0.3224
24559SOL     OW75117   1.726   0.200   9.844  0.0150  0.7585  0.2876
24559SOL    HW175118   1.814   0.162   9.848  0.2182  0.9905 -1.2257
24559SOL    HW275119   1.735   0.273   9.782 -1.6202 -0.3545 -1.3554
24560SOL     OW75120   4.483   1.160  10.396  0.3675  0.4384 -0.2878
24560SOL    HW175121   4.565   1.126  10.358  1.6841  0.1045  2.5588
24560SOL    HW275122   4.480   1.251  10.370  3.5620  1.4493  2.1669
24561SOL     OW75123   5.096   2.525   0.412  0.0853 -0.3110 -0.4068
24561SOL    HW175124   5.007   2.533   0.377  0.2274  0.0511 -0.6859
24561SOL    HW275125   5.083   2.498   0.503 -0.4480  2.6714  0.5144
24562SOL     OW75126   6.967   1.657   9.434 -0.0407  0.7578 -0.5251
24562SOL    HW175127   7.019   1.691   9.361  0.3976  2.3179  0.4777
24562SOL    HW275128   6.987   1.715   9.507 -1.2622 -0.1529  0.5754
24563SOL     OW75129   1.177   5.952  11.691 -0.0622 -0.5023 -0.6033
24563SOL    HW175130   1.260   5.926  11.651 -0.5561 -0.8377 -1.4429
24563SOL    HW275131   1.200   5.979  11.780  1.0629  0.2492 -1.1039
24564SOL     OW75132   4.062   2.468   0.498  0.5360  0.2139 -0.0790
24564SOL    HW175133   4.079   2.547   0.446  0.6319 -0.5343 -1.2454
24564SOL    HW275134   4.145   2.450   0.542  0.9434 -0.0094 -0.9176
24565SOL     OW75135   2.943   2.019  11.690  0.3055  0.1358 -0.0782
24565SOL    HW175136   2.867   2.000  11.746 -0.7905  0.6280 -1.3359
24565SOL    HW275137   3.015   1.969  11.729  0.2614  2.3651  3.2506
24566SOL     OW75138   7.155   3.336   1.228 -0.8142 -0.1796 -0.1677
24566SOL    HW175139   7.224   3.399   1.207  0.3864 -1.9197 -1.8201
24566SOL    HW275140   7.103   3.331   1.148 -2.7336  0.8508  0.9478
24567SOL     OW75141   7.700   7.446   1.582 -0.5675 -0.1632 -0.4600
24567SOL    HW175142   7.743   7.373   1.537 -1.2801 -0.3686 -0.8217
24567SOL    HW275143   7.736   7.524   1.539  0.2075 -0.2893 -0.0622
24568SOL     OW75144   7.322   0.389  11.694  0.3390  0.2815  0.1147
24568SOL    HW175145   7.386   0.323  11.668 -0.5834 -0.4825 -0.3102
24568SOL    HW275146   7.340   0.406  11.786  0.0354 -1.2561  0.4872
24569SOL     OW75147   7.880   4.597   7.218  0.0990 -0.8084  0.3473
24569SOL    HW175148   7.863   4.609   7.124  1.3308  3.1791  0.4657
24569SOL    HW275149   7.794   4.582   7.256 -0.7190 -0.1668 -1.1482
24570SOL     OW75150   4.198   7.879  10.760  0.3838  0.0339  0.2033
24570SOL    HW175151   4.128   7.935  10.793  0.1353  0.2796 -0.7247
24570SOL    HW275152   4.158   7.793  10.751 -0.4113  0.6097 -2.2802
24571SOL     OW75153   3.121   0.862   7.322  0.3822  0.5473 -0.5862
24571SOL    HW175154   3.191   0.820   7.272  0.7620  1.5661 -0.9185
24571SOL    HW275155   3.100   0.941   7.273  0.7523  1.5589  0.8321
24572SOL     OW75156   7.241   3.915   8.644 -0.4112  0.1781 -0.1477
24572SOL    HW175157   7.164   3.965   8.673 -1.1601 -1.3098  0.5345
24572SOL    HW275158   7.300   3.981   8.608 -1.3252  1.5611  0.7824
24573SOL     OW75159   3.972   2.408   1.385  0.1842 -0.5658  0.6680
24573SOL    HW175160   3.953   2.479   1.447 -1.8460 -0.8361  0.4372
24573SOL    HW275161   3.986   2.453   1.301 -4.4668 -0.3867 -0.2811
24574SOL     OW75162   3.109   6.652  10.122 -0.4936  0.5998  0.2547
24574SOL    HW175163   3.176   6.597  10.162 -1.0868 -0.6487 -0.4160
24574SOL    HW275164   3.134   6.659  10.030  0.0151  2.1661  0.4711
24575SOL     OW75165   0.978   5.482   6.298 -0.5057  0.1682 -0.0290
24575SOL    HW175166   0.931   5.483   6.382 -1.7960  0.9036 -0.7169
24575SOL    HW275167   1.054   5.539   6.313 -0.8534  0.4911  0.5780
24576SOL     OW75168   1.471   5.639   2.492 -0.1521  0.0893 -0.0793
24576SOL    HW175169   1.428   5.646   2.406  0.9062 -2.2398 -0.9031
24576SOL    HW275170   1.418   5.576   2.540  1.3095 -1.5957 -0.5303
24577SOL     OW75171   0.039   6.857   6.563 -0.3149 -0.7141  0.2624
24577SOL    HW175172  -0.040   6.807   6.543  1.1404 -2.0319 -2.8843
24577SOL    HW275173   0.102   6.791   6.591 -0.0548  0.2403  2.0875
24578SOL     OW75174   6.570   0.777   1.542 -0.1608  0.3982  0.1607
24578SOL    HW175175   6.498   0.777   1.479 -1.6123 -3.2433  1.5541
24578SOL    HW275176   6.645   0.744   1.493 -1.2146 -2.1692  0.1089
24579SOL     OW75177   0.009   5.565   3.718 -0.0474 -0.0072  0.6022
24579SOL    HW175178   0.102   5.558   3.741  0.0475 -0.5007  0.0791
24579SOL    HW275179  -0.030   5.610   3.792  0.5659 -0.0196  0.9426
24580SOL     OW75180   4.652   2.169   0.785 -0.1625 -0.0808  0.8124
24580SOL    HW175181   4.610   2.181   0.699  0.8065  0.9627  0.4665
24580SOL    HW275182   4.591   2.208   0.847 -1.0028 -1.0850  0.6525
24581SOL     OW75183   3.106   5.729   9.093 -0.1688  0.4952 -0.3943
24581SOL    HW175184   3.043   5.659   9.078  1.0630 -0.8735  0.4730
24581SOL    HW275185   3.082   5.797   9.031 -0.2426 -1.4734 -2.6966
24582SOL     OW75186   1.595   2.180   1.662 -0.2047 -0.2994  0.1740
24582SOL    HW175187   1.503   2.154   1.658 -0.5346  0.4402  2.0563
24582SOL    HW275188   1.626   2.149   1.746  0.7903  0.9251  0.3015
24583SOL     OW75189   3.071   5.279   8.500  0.4587 -0.0806 -0.0111
24583SOL    HW175190   3.035   5.191   8.511  1.9579 -0.4542  3.3649
24583SOL    HW275191   3.166   5.266   8.494  0.5825  1.2198 -1.4963
24584SOL     OW75192   5.812   6.803   0.842  0.4203  0.2196 -0.4882
24584SOL    HW175193   5.781   6.882   0.886 -1.4451 -0.8525  0.2877
24584SOL    HW275194   5.907   6.804   0.854  0.3257  1.8031  0.4050
24585SOL     OW75195   7.252   5.297   0.069  0.4460  0.1109 -0.9970
24585SOL    HW175196   7.320   5.342   0.119  1.7346 -1.9623 -0.7423
24585SOL    HW275197   7.236   5.216   0.119 -2.7541  0.8126 -0.6613
24586SOL     OW75198   1.918   2.823   3.140 -0.0381 -0.1607 -0.0742
24586SOL    HW175199   1.969   2.744   3.120  1.3950  1.2619 -2.4158
24586SOL    HW275200   1.865   2.798   3.216  1.9925 -2.6500  0.6588
24587SOL     OW75201   2.510   5.291   5.526  0.5226  0.7262 -0.1035
24587SOL    HW175202   2.465   5.224   5.476  2.4006 -0.9004  0.2712
24587SOL    HW275203   2.468   5.291   5.612  0.7897 -0.3024  0.0325
24588SOL     OW75204   6.268   7.549   6.463  0.0054 -0.0902  0.3200
24588SOL    HW175205   6.219   7.572   6.542 -0.2551 -0.1896  0.1862
24588SOL    HW275206   6.278   7.454   6.468 -0.5979 -0.1812 -0.1058
24589SOL     OW75207   1.881   1.540   3.915  0.2852 -0.4810 -0.4783
24589SOL    HW175208   1.835   1.459   3.936 -0.9995  0.4393  0.4211
24589SOL    HW275209   1.836   1.574   3.837 -1.4920  1.0498  1.1169
24590SOL     OW75210   6.450   1.220  11.077  0.4581  0.2537  0.4468
24590SOL    HW175211   6.442   1.299  11.025 -1.5728  0.6445  1.2723
24590SOL    HW275212   6.388   1.158  11.037  1.8523 -0.8798 -0.0542
24591SOL     OW75213   3.931   0.503   8.324  0.6979 -0.0006  0.0798
24591SOL    HW175214   3.869   0.527   8.393  0.2756 -1.0147  0.0774
24591SOL    HW275215   3.978   0.428   8.361  1.5975  0.4674 -0.1071
24592SOL     OW75216   7.443   1.997  10.223  0.8286  0.4420 -0.9115
24592SOL    HW175217   7.395   2.045  10.155 -1.4658 -1.5346 -0.8479
24592SOL    HW275218   7.397   2.019  10.304 -0.2439 -1.6506 -0.8730
24593SOL     OW75219   1.285   2.596  11.612 -1.0018 -0.5960 -0.1316
24593SOL    HW175220   1.286   2.526  11.547  2.2342 -2.2906  1.5131
24593SOL    HW275221   1.225   2.564  11.680 -1.7635 -0.3694 -0.6770
24594SOL     OW75222   1.216   1.020   5.937 -0.0021 -0.1703  0.0139
24594SOL    HW175223   1.162   1.086   5.979  0.5072  0.0940  0.2697
24594SOL    HW275224   1.306   1.053   5.947  0.3347 -1.2801  0.8425
24595SOL     OW75225   2.440   7.893   0.770  0.6722  0.2125  0.1329
24595SOL    HW175226   2.529   7.912   0.801  0.8378 -0.9673  0.4304
24595SOL    HW275227   2.407   7.827   0.832 -0.5024  0.8006  0.1632
24596SOL     OW75228   1.765   7.416   8.815  0.3238  0.2359  0.1531
24596SOL    HW175229   1.783   7.504   8.847  1.4567  0.0911 -0.0132
24596SOL    HW275230   1.673   7.400   8.835 -0.2299  1.8975 -0.8811
24597SOL     OW75231   4.585   3.507  10.872 -0.6681 -0.1072  0.1613
24597SOL    HW175232   4.637   3.493  10.793  2.3560  1.0333  1.7699
24597SOL    HW275233   4.554   3.597  10.865 -0.0100  0.1502  0.4274
24598SOL     OW75234   3.294   3.180   0.255 -0.8320  0.0789 -0.1274
24598SOL    HW175235   3.361   3.176   0.186 -0.4527  0.6961  0.1968
24598SOL    HW275236   3.343   3.163   0.336 -0.7751  1.9560  0.2812
24599SOL     OW75237   2.057   2.675   5.200  0.0368 -0.0747  0.5412
24599SOL    HW175238   2.035   2.698   5.290 -1.6972  0.2743  0.0645
24599SOL    HW275239   1.978   2.635   5.165  0.7487 -0.4165 -0.7782
24600SOL     OW75240   6.991   5.188  11.722 -0.3378 -0.0908 -0.1647
24600SOL    HW175241   6.934   5.264  11.734 -1.9549 -1.2295 -0.1803
24600SOL    HW275242   7.008   5.185  11.628  1.7804  1.5928  0.0898
24601SOL     OW75243   7.167   5.135   9.682 -0.1960 -0.1358  0.3608
24601SOL    HW175244   7.097   5.182   9.637  0.0097  0.0014  0.1777
24601SOL    HW275245   7.169   5.174   9.770 -0.4479 -0.2472  0.4166
24602SOL     OW75246   4.089   5.693   4.561  0.2577  0.3270 -0.2213
24602SOL    HW175247   4.061   5.629   4.626 -0.0510  0.4085 -0.2724
24602SOL    HW275248   4.042   5.773   4.585 -2.4301 -0.4282 -2.4110
24603SOL     OW75249   4.422   3.407  11.077 -0.1707  0.1991 -0.1008
24603SOL    HW175250   4.425   3.471  11.148 -1.9263  0.8716 -0.5772
24603SOL    HW275251   4.477   3.444  11.009 -0.3173  0.6871  0.0422
24604SOL     OW75252   1.565   3.044   9.660  0.3841  0.0926 -0.9546
24604SOL    HW175253   1.530   3.005   9.580  1.6307 -0.1178 -1.4164
24604SOL    HW275254   1.580   2.970   9.719 -1.3111  0.3181 -0.1741
24605SOL     OW75255   2.948   4.271   2.263 -0.2905 -0.1339  0.6664
24605SOL    HW175256   2.942   4.327   2.341 -0.2171 -1.2517  1.4962
24605SOL    HW275257   2.927   4.330   2.190  1.3033  1.3690  1.3306
24606SOL     OW75258   7.422   1.794   3.360 -0.2128 -0.1021  0.1509
24606SOL    HW175259   7.335   1.819   3.330  0.5585  1.1189 -1.1825
24606SOL    HW275260   7.475   1.791   3.281  1.0293 -0.5826  0.9684
24607SOL     OW75261   4.243   1.529   8.145 -0.0218  0.2242  0.0107
24607SOL    HW175262   4.245   1.439   8.112 -1.0932  1.0765 -2.6645
24607SOL    HW275263   4.176   1.528   8.213  0.8516 -1.2366  0.8903
24608SOL     OW75264   2.993   6.970   5.785  0.3526 -0.2467  0.1116
24608SOL    HW175265   2.927   6.916   5.829  1.6683 -0.8483  1.4404
24608SOL    HW275266   3.070   6.913   5.778  0.6336  0.2922 -1.7919
24609SOL     OW75267   0.885   0.698   3.371 -0.0572 -0.6837 -0.2116
24609SOL    HW175268   0.922   0.613   3.349  1.4513 -0.6045  1.7548
24609SOL    HW275269   0.818   0.679   3.436  0.6060 -0.3448  0.5800
24610SOL     OW75270   6.712   4.343   7.534  0.7750  0.2965  0.3397
24610SOL    HW175271   6.807   4.350   7.536  0.8556 -0.6731  1.3904
24610SOL    HW275272   6.695   4.252   7.510  0.1270  0.3932  0.4073
24611SOL     OW75273   4.416   0.921   7.305 -0.2375  0.0570 -0.1006
24611SOL    HW175274   4.372   0.901   7.222 -0.5298  1.1584 -0.2248
24611SOL    HW275275   4.502   0.880   7.297 -0.5186 -0.4382 -0.6631
24612SOL     OW75276   5.376   3.970  12.292  0.1704  0.0937  0.3909
24612SOL    HW175277   5.464   3.934  12.299  0.4752  0.7330 -0.0946
24612SOL    HW275278   5.364   4.019  12.374  0.4083  0.3195  0.2905
24613SOL     OW75279   0.506   1.624   5.402 -0.4015 -0.7538  0.1684
24613SOL    HW175280   0.419   1.634   5.363 -0.6880 -0.5243  0.8407
24613SOL    HW275281   0.560   1.588   5.332 -0.8958 -0.3444 -0.4373
24614SOL     OW75282   3.776   5.460   1.720  0.2070 -0.2899 -0.3463
24614SOL    HW175283   3.764   5.438   1.627 -0.9304  0.6712 -0.4517
24614SOL    HW275284   3.756   5.554   1.725  4.3086  0.7540  0.1506
24615SOL     OW75285   2.476   6.173   5.353 -0.1165 -0.1519  0.1092
24615SOL    HW175286   2.420   6.137   5.285 -0.8521 -1.4508  1.3372
24615SOL    HW275287   2.423   6.241   5.395 -0.6082 -0.9829  0.8906
24616SOL     OW75288   4.810   3.429  11.039 -0.1150  0.2129  0.3506
24616SOL    HW175289   4.777   3.399  11.123 -1.2545 -0.5078 -0.3379
24616SOL    HW275290   4.735   3.467  10.995  0.7414  1.7357  0.1366
24617SOL     OW75291   1.795   6.414   2.768  0.3027 -0.0991  0.2189
24617SOL    HW175292   1.839   6.341   2.723 -0.4101  0.1827 -0.9996
24617SOL    HW275293   1.730   6.373   2.823  0.9222 -0.4442  0.6995
24618SOL     OW75294   3.284   1.787   4.563  0.4252  0.4234 -0.5583
24618SOL    HW175295   3.228   1.713   4.585 -1.6286  2.2496  0.8838
24618SOL    HW275296   3.344   1.794   4.637 -0.2257  0.9014 -0.0558
24619SOL     OW75297   5.261   7.631  10.493 -0.6512 -0.2837 -0.0888
24619SOL    HW175298   5.264   7.564  10.562 -1.2174 -0.4041 -0.1710
24619SOL    HW275299   5.351   7.638  10.462 -0.4153 -0.3205  0.5766
24620SOL     OW75300   6.014   0.608   8.260 -1.0555  0.2004  0.1433
24620SOL    HW175301   5.958   0.684   8.278 -0.2925  0.8359 -0.1174
24620SOL    HW275302   6.102   0.645   8.250 -0.6869 -0.7120 -0.0669
24621SOL     OW75303   5.470   0.475   9.657  0.5536  0.1924  0.2803
24621SOL    HW175304   5.513   0.415   9.718 -0.1489  1.7237  2.4065
24621SOL    HW275305   5.507   0.561   9.678  0.7394  0.7231 -1.9356
24622SOL     OW75306   3.829   7.284   3.954 -0.2965 -0.2788 -0.1318
24622SOL    HW175307   3.773   7.360   3.939  0.1863  0.0144 -0.5042
24622SOL    HW275308   3.823   7.268   4.049 -1.1397 -0.3667 -0.1962
24623SOL     OW75309   5.691   3.407   9.130  0.4922  0.3022 -0.6131
24623SOL    HW175310   5.672   3.381   9.220 -2.1578 -0.9400 -1.4261
24623SOL    HW275311   5.675   3.501   9.128  2.2842  0.6794  0.5538
24624SOL     OW75312   5.493   0.721   0.949 -0.1139 -0.2134  0.4329
24624SOL    HW175313   5.478   0.802   0.998 -1.5517  0.1184 -0.4839
24624SOL    HW275314   5.405   0.691   0.925  0.5013 -0.4406 -1.7873
24625SOL     OW75315   0.886   2.125   4.246 -0.7678 -0.1897  0.2100
24625SOL    HW175316   0.973   2.104   4.213 -0.5242  1.5706 -0.3446
24625SOL    HW275317   0.893   2.115   4.341 -0.0408 -0.3326  0.1454
24626SOL     OW75318   1.239   7.089   2.810  0.0939  0.5502 -0.1832
24626SOL    HW175319   1.186   7.109   2.887 -0.2001  0.1070 -0.2672
24626SOL    HW275320   1.175   7.068   2.741  0.3558  0.8245 -0.5149
24627SOL     OW75321   5.075   6.003  12.242  0.0889 -0.6824 -0.3191
24627SOL    HW175322   5.024   6.077  12.275  0.3294 -0.2510 -0.9098
24627SOL    HW275323   5.123   5.971  12.319 -0.3063 -0.4701  0.0234
24628SOL     OW75324   1.215   3.773   4.766  0.5701 -0.1251  0.2223
24628SOL    HW175325   1.217   3.784   4.861  0.7656 -1.7472  0.4449
24628SOL    HW275326   1.297   3.729   4.745  0.6977  0.5470 -0.7557
24629SOL     OW75327   7.578   5.363   9.719  0.9862 -0.0621  0.1872
24629SOL    HW175328   7.568   5.292   9.655  1.2646  0.1298 -0.0709
24629SOL    HW275329   7.671   5.361   9.742  0.8882 -0.1296  0.5901
24630SOL     OW75330   3.855   1.325  10.578  0.3636 -0.3955 -0.3910
24630SOL    HW175331   3.924   1.321  10.645  0.9567  1.2969 -0.8673
24630SOL    HW275332   3.779   1.363  10.623  0.6710  0.4682 -0.5859
24631SOL     OW75333   6.431   7.137   2.782  0.1498 -0.4570  0.6837
24631SOL    HW175334   6.460   7.047   2.800  0.4417 -0.6656 -0.7215
24631SOL    HW275335   6.354   7.148   2.839  1.1354 -0.9518  2.1953
24632SOL     OW75336   7.717   1.524   4.719 -0.3194  0.1610  0.3074
24632SOL    HW175337   7.773   1.497   4.791 -0.1132 -0.3257 -0.0303
24632SOL    HW275338   7.778   1.543   4.647 -0.6227 -2.6583 -0.8435
24633SOL     OW75339   6.264   3.648   7.807 -0.0517  0.2356 -0.5232
24633SOL    HW175340   6.283   3.729   7.760 -0.3976  0.8226  0.3151
24633SOL    HW275341   6.194   3.672   7.868 -0.6570 -0.8774 -0.7658
24634SOL     OW75342   6.262   7.753   2.258 -0.5024  0.4282  0.2192
24634SOL    HW175343   6.285   7.670   2.301  0.8129  0.4918 -0.3120
24634SOL    HW275344   6.232   7.727   2.171  0.7016  0.5332 -0.2487
24635SOL     OW75345   7.859   2.376   9.815 -0.2238 -0.4272 -0.4256
24635SOL    HW175346   7.856   2.290   9.771  1.1387 -0.6580 -0.1220
24635SOL    HW275347   7.950   2.404   9.806 -0.4158  0.5138  0.4002
24636SOL     OW75348   0.505   2.394   3.823  0.1517  0.2854 -0.2777
24636SOL    HW175349   0.489   2.300   3.826  1.7992 -0.0695 -1.3062
24636SOL    HW275350   0.465   2.428   3.903 -3.4812 -0.7383 -1.4461
24637SOL     OW75351   4.832   6.667   6.342  0.2298  0.4318  0.8382
24637SOL    HW175352   4.886   6.668   6.263 -0.7650 -1.2647  0.0757
24637SOL    HW275353   4.849   6.581   6.382 -0.9117  0.3932  1.2842
24638SOL     OW75354   0.195   6.180   9.295 -0.4878  0.0157 -0.2488
24638SOL    HW175355   0.284   6.215   9.285 -0.2520 -0.0410  1.3804
24638SOL    HW275356   0.204   6.086   9.279 -0.4268  0.1306 -0.9253
24639SOL     OW75357   5.308   2.993   8.648 -0.7644  0.2382  0.0523
24639SOL    HW175358   5.350   3.073   8.679 -0.0238 -0.9162  2.1969
24639SOL    HW275359   5.381   2.934   8.629 -1.3205 -0.1042 -1.0746
24640SOL     OW75360   7.011   3.498   2.920  0.5981 -0.0580  0.3261
24640SOL    HW175361   7.050   3.448   2.849  0.1858 -1.6865  1.1902
24640SOL    HW275362   6.940   3.548   2.879  1.3653  0.2542 -0.6479
24641SOL     OW75363   3.293   5.160   6.494  0.1721  0.1341 -0.3714
24641SOL    HW175364   3.308   5.088   6.433  0.1902 -1.2490  1.1873
24641SOL    HW275365   3.199   5.161   6.508  0.2601 -0.1802  0.2794
24642SOL     OW75366   7.737   0.583  12.372 -0.4000  0.6615  0.1636
24642SOL    HW175367   7.735   0.597  12.467  2.3907 -0.5741  0.5058
24642SOL    HW275368   7.755   0.669  12.335  1.7030  0.6660  1.0597
24643SOL     OW75369   7.810   5.911   9.378  0.4833  0.3384 -0.1793
24643SOL    HW175370   7.723   5.951   9.375  0.6899  0.8373  0.2433
24643SOL    HW275371   7.871   5.985   9.371  0.8708  0.1668  1.0852
24644SOL     OW75372   2.951   4.946   8.555  0.1627 -0.5822  0.1204
24644SOL    HW175373   2.935   4.852   8.567 -0.0032 -0.3861  1.6305
24644SOL    HW275374   3.023   4.966   8.615 -1.4904  0.7256  1.7946
24645SOL     OW75375   6.425   6.797  11.194 -0.5144 -0.4314  0.5715
24645SOL    HW175376   6.435   6.855  11.269 -0.8472  0.2391  0.1107
24645SOL    HW275377   6.362   6.731  11.222  0.3725 -0.9750  1.3334
24646SOL     OW75378   3.927   3.086   0.560 -0.0893 -0.1249  0.0493
24646SOL    HW175379   3.956   3.156   0.502  0.5523 -0.5291 -0.1217
24646SOL    HW275380   3.942   3.120   0.648  0.3437 -0.0986 -0.0340
24647SOL     OW75381   2.194   5.907   0.794 -0.0221  0.4122  0.2251
24647SOL    HW175382   2.192   5.906   0.890 -0.6929 -0.2451  0.2126
24647SOL    HW275383   2.276   5.862   0.772 -0.5211 -0.6543  0.4880
24648SOL     OW75384   2.212   5.830   0.072 -1.0261 -0.5410 -0.4381
24648SOL    HW175385   2.215   5.749   0.124 -0.9303 -0.5034 -0.3842
24648SOL    HW275386   2.213   5.900   0.137 -2.0727 -0.4990 -0.4504
24649SOL     OW75387   2.430   3.279   9.597 -0.7100 -0.2435  0.0340
24649SOL    HW175388   2.432   3.284   9.692 -0.2164  0.6400 -0.0135
24649SOL    HW275389   2.509   3.326   9.569  0.2261 -2.1767 -0.7498
24650SOL     OW75390   7.494   3.174   0.089  0.1414  0.1390  0.3674
24650SOL    HW175391   7.578   3.135   0.064 -1.1888 -1.9176 -1.2263
24650SOL    HW275392   7.453   3.110   0.147 -1.0728  0.2592 -0.3230
24651SOL     OW75393   4.256   3.865   5.811  0.5350 -0.0812 -0.0985
24651SOL    HW175394   4.169   3.835   5.836  0.1331  0.1947 -1.1372
24651SOL    HW275395   4.257   3.957   5.835  0.7702 -0.2194  0.4621
24652SOL     OW75396   2.692   2.124   0.962  0.6023 -0.1281 -0.4506
24652SOL    HW175397   2.710   2.105   0.870  0.0063  0.5564 -0.7276
24652SOL    HW275398   2.663   2.041   0.999 -0.3738 -0.1496 -1.2113
24653SOL     OW75399   4.811   7.446   3.726  0.2426 -0.0729  0.2503
24653SOL    HW175400   4.767   7.447   3.812  0.9014 -0.9473  0.6056
24653SOL    HW275401   4.787   7.530   3.687  1.1026  1.0125  1.9057
24654SOL     OW75402   2.481   0.254  11.299  0.6298 -0.1107 -0.0385
24654SOL    HW175403   2.574   0.231  11.311  0.5835 -0.6273 -0.6566
24654SOL    HW275404   2.462   0.312  11.373  1.7939  1.0678 -0.6144
24655SOL     OW75405   6.212   1.445   8.367  0.4603 -0.4853 -0.1152
24655SOL    HW175406   6.137   1.396   8.401  0.7403 -1.1314 -0.3965
24655SOL    HW275407   6.181   1.535   8.358 -0.3068 -0.7616 -0.2978
24656SOL     OW75408   4.142   6.743   6.749  0.0606 -0.2199  0.7191
24656SOL    HW175409   4.231   6.778   6.752 -0.9177  2.6950 -0.0800
24656SOL    HW275410   4.111   6.764   6.661 -1.5317 -0.8157  1.1025
24657SOL     OW75411   6.917   1.334   3.014  0.2936  0.6306  0.0828
24657SOL    HW175412   6.885   1.357   3.101 -0.0264  2.6765 -0.5228
24657SOL    HW275413   6.959   1.249   3.025 -0.5457  0.4304  2.0316
24658SOL     OW75414   2.509   3.816   5.744 -0.0587  0.0285  0.0538
24658SOL    HW175415   2.570   3.879   5.707 -0.1131  1.0831  1.6593
24658SOL    HW275416   2.565   3.748   5.782  0.0008 -0.8959 -1.6177
24659SOL     OW75417   1.998   5.686   4.319 -0.1513 -0.5655  0.1568
24659SOL    HW175418   2.034   5.605   4.356 -0.8492 -2.0767 -2.2269
24659SOL    HW275419   2.073   5.726   4.273 -0.1174 -0.5444  0.2305
24660SOL     OW75420   5.078   6.029   0.123 -0.0083  0.4576 -0.0764
24660SOL    HW175421   5.056   6.003   0.213 -0.9826  1.2675 -0.0622
24660SOL    HW275422   5.006   6.086   0.097  0.1123 -0.0086 -1.4899
24661SOL     OW75423   7.060   1.651   7.987  0.0796 -0.1824  0.5109
24661SOL    HW175424   7.148   1.654   8.026  0.2999 -1.5933  0.1633
24661SOL    HW275425   7.073   1.607   7.902 -0.8062  0.5088 -0.0001
24662SOL     OW75426   1.508   5.001   1.203  0.0551 -0.2239  0.1589
24662SOL    HW175427   1.566   5.041   1.138 -0.5106  1.7091  0.7785
24662SOL    HW275428   1.532   5.044   1.286  2.2587 -4.0972  1.8170
24663SOL     OW75429   0.514   7.536   2.350  0.4623 -0.2514 -0.2221
24663SOL    HW175430   0.562   7.455   2.367  0.7374  0.2129  1.3727
24663SOL    HW275431   0.577   7.593   2.306  0.3388 -0.8180 -1.1392
24664SOL     OW75432   5.165   6.717  12.387 -0.2131  0.4463  0.6458
24664SOL    HW175433   5.129   6.719  12.299  2.8974  2.7778 -0.7472
24664SOL    HW275434   5.089   6.725  12.444 -2.1686  1.2574 -1.8991
24665SOL     OW75435   1.882   4.215   6.535 -0.0615  0.4036  0.1499
24665SOL    HW175436   1.936   4.293   6.547 -0.4649  1.0302 -1.7426
24665SOL    HW275437   1.940   4.142   6.556  1.2959  1.0998 -0.9832
24666SOL     OW75438   6.153   5.055   9.215  0.0581  0.1050 -0.5952
24666SOL    HW175439   6.060   5.030   9.207  0.0263 -0.3533  0.9197
24666SOL    HW275440   6.151   5.143   9.252  0.2281 -0.1941  0.1330
24667SOL     OW75441   3.922   3.201   6.298 -0.1379  0.0478  0.2473
24667SOL    HW175442   3.962   3.235   6.378  0.8225  0.7555 -0.5075
24667SOL    HW275443   3.969   3.245   6.227  1.0875 -2.7093 -0.7982
24668SOL     OW75444   2.035   2.085   1.033  0.3201  0.3562  0.0960
24668SOL    HW175445   1.957   2.097   0.980  1.5410  0.6009 -1.7168
24668SOL    HW275446   2.022   1.999   1.075 -0.1074 -0.4988 -1.6707
24669SOL     OW75447   0.204   5.840   6.397  0.0092 -0.0627  0.2224
24669SOL    HW175448   0.115   5.874   6.384 -0.3851 -1.3566 -0.5724
24669SOL    HW275449   0.196   5.782   6.472 -0.1224 -1.1945 -0.6444
24670SOL     OW75450   7.067   0.740   6.558  0.1737  0.1533  0.1856
24670SOL    HW175451   7.031   0.818   6.600 -0.2867  0.0732 -0.0573
24670SOL    HW275452   7.053   0.670   6.621  0.9218  0.3271  0.5614
24671SOL     OW75453   7.721   4.684   3.358  0.1781 -0.2410  0.0534
24671SOL    HW175454   7.743   4.596   3.386  0.1303 -0.1627  0.3381
24671SOL    HW275455   7.650   4.712   3.417 -0.4024 -0.3350 -0.5910
24672SOL     OW75456   7.669   0.926  11.275  0.6138  0.2065 -0.0172
24672SOL    HW175457   7.660   1.021  11.268  0.1327  0.1623 -0.0216
24672SOL    HW275458   7.601   0.891  11.217  0.3766 -0.1383  0.4618
24673SOL     OW75459   5.492   4.710   9.677 -0.8371  0.5666  0.0608
24673SOL    HW175460   5.432   4.756   9.618 -0.4127  0.9105 -0.1114
24673SOL    HW275461   5.435   4.661   9.736 -1.2943 -1.3497 -1.8192
24674SOL     OW75462   6.333   6.442   0.581  0.0384  0.0206  0.2939
24674SOL    HW175463   6.385   6.362   0.573 -3.0352 -2.3715  1.8397
24674SOL    HW275464   6.271   6.423   0.651 -1.1635  3.6515  0.4100
24675SOL     OW75465   7.733   4.956   2.908 -0.2346  0.3401 -0.1749
24675SOL    HW175466   7.725   4.893   2.979  1.5656  0.5300  0.2511
24675SOL    HW275467   7.643   4.986   2.892 -0.9996 -1.5584  0.2791
24676SOL     OW75468   1.594   2.056   6.276  0.8488 -0.0588  0.0035
24676SOL    HW175469   1.662   2.116   6.307  0.6306 -0.3994  1.1715
24676SOL    HW275470   1.622   1.970   6.307  0.3482 -0.3285 -0.2917
24677SOL     OW75471   6.212   6.535   4.297  0.0670  0.0285  0.1846
24677SOL    HW175472   6.263   6.492   4.365  1.9129  0.7749 -0.6669
24677SOL    HW275473   6.197   6.467   4.231  1.1170  0.1172 -0.1634
24678SOL     OW75474   0.865   6.313   0.779 -0.1836 -0.1895 -0.0115
24678SOL    HW175475   0.889   6.354   0.862 -0.0166 -0.8392  0.2724
24678SOL    HW275476   0.869   6.219   0.797 -3.1554 -0.3690  0.1330
24679SOL     OW75477   3.468   5.609   0.587 -0.3142  0.3559  0.3620
24679SOL    HW175478   3.412   5.532   0.596 -0.4817  0.3715 -0.5164
24679SOL    HW275479   3.493   5.610   0.495  0.5176  0.7786  0.5838
24680SOL     OW75480   7.723   2.302   3.826 -0.3124 -0.2035 -0.3841
24680SOL    HW175481   7.813   2.292   3.857 -0.2783 -2.0902 -0.9867
24680SOL    HW275482   7.731   2.300   3.730 -0.8992  0.6771 -0.4579
24681SOL     OW75483   0.880   1.133   2.058  0.0473 -0.4938  0.0152
24681SOL    HW175484   0.884   1.064   1.992 -2.6884  0.2918 -1.0987
24681SOL    HW275485   0.826   1.097   2.128  0.9475 -0.4520  0.7573
24682SOL     OW75486   7.138   4.835   5.212 -0.5615 -0.6070 -0.0460
24682SOL    HW175487   7.155   4.854   5.120  0.7487 -1.3050  0.0319
24682SOL    HW275488   7.096   4.915   5.245 -0.0496  0.0745 -0.9858
24683SOL     OW75489   3.144   2.169   1.518 -0.0465 -0.3703 -0.0053
24683SOL    HW175490   3.102   2.255   1.526  0.8979  0.2033 -0.8924
24683SOL    HW275491   3.186   2.171   1.432  2.5165 -0.5437  1.1460
24684SOL     OW75492   7.723   6.988   3.959 -0.2189 -0.0677 -0.1017
24684SOL    HW175493   7.796   7.010   3.901 -0.4772 -0.3079 -0.5251
24684SOL    HW275494   7.764   6.974   4.045  0.5507 -2.4507 -0.8045
24685SOL     OW75495   6.842   2.195   2.895 -0.3078  0.0545 -0.0765
24685SOL    HW175496   6.776   2.261   2.916 -0.0334 -0.4283  2.5968
24685SOL    HW275497   6.897   2.190   2.972  0.8734 -1.9202 -0.9695
24686SOL     OW75498   7.591   3.844   0.819  0.4873  0.0151 -0.2142
24686SOL    HW175499   7.526   3.811   0.758  0.5020 -0.1831 -0.1224
24686SOL    HW275500   7.657   3.775   0.824  0.0782 -0.3353  0.6528
24687SOL     OW75501   4.715   7.812   2.862  0.1713 -0.9997 -0.5610
24687SOL    HW175502   4.652   7.883   2.864  0.8466 -0.3742 -0.8034
24687SOL    HW275503   4.680   7.746   2.921  0.3601  0.2402  1.0091
24688SOL     OW75504   3.143   7.354  10.588 -0.1873  0.1305  0.6151
24688SOL    HW175505   3.053   7.356  10.555  0.4634  0.0950 -1.2687
24688SOL    HW275506   3.136   7.311  10.673 -2.3251  2.6610  1.8596
24689SOL     OW75507   5.982   6.239   7.098 -0.4146 -0.4713  0.3128
24689SOL    HW175508   5.979   6.333   7.114 -1.7985 -0.0897 -1.7317
24689SOL    HW275509   6.007   6.200   7.182  1.1682  1.7604  0.9577
24690SOL     OW75510   4.292   7.216   3.625 -0.1641  0.0425  0.4733
24690SOL    HW175511   4.360   7.273   3.659  0.3900 -0.6934  0.6263
24690SOL    HW275512   4.216   7.274   3.612  0.8328  1.1112 -0.8401
24691SOL     OW75513   2.012   3.135  10.459  0.8922 -0.1058  0.5600
24691SOL    HW175514   1.919   3.120  10.473  0.4821  3.0458  1.9937
24691SOL    HW275515   2.021   3.145  10.364 -0.4210  0.5449  0.4844
24692SOL     OW75516   1.926   6.233   2.619  0.2230 -0.2998 -0.0343
24692SOL    HW175517   2.009   6.240   2.572 -1.2102 -1.0609 -2.8945
24692SOL    HW275518   1.913   6.139   2.631 -0.2670 -0.1932  0.2994
24693SOL     OW75519   6.597   1.333   7.071 -0.3157 -0.5207  0.6125
24693SOL    HW175520   6.550   1.283   7.138 -2.7935 -1.2399 -1.4908
24693SOL    HW275521   6.528   1.361   7.010  1.2292  3.7528  0.5365
24694SOL     OW75522   3.239   2.184   9.148  0.1329 -0.5150  0.1363
24694SOL    HW175523   3.177   2.117   9.176 -2.0602  0.6790 -1.5501
24694SOL    HW275524   3.277   2.149   9.067  0.2045 -0.4175  0.1280
24695SOL     OW75525   0.223   1.538   7.316  0.8061 -0.3229  0.0439
24695SOL    HW175526   0.228   1.538   7.220 -0.6449  1.6175 -0.1052
24695SOL    HW275527   0.249   1.626   7.342  2.0779 -1.0898  1.5481
24696SOL     OW75528   5.337   3.100   9.011  0.3224 -0.2737 -0.5368
24696SOL    HW175529   5.259   3.066   8.966 -0.1200 -1.9119  1.3409
24696SOL    HW275530   5.333   3.194   8.999 -2.3333 -0.2416  0.0584
24697SOL     OW75531   3.473   5.397   6.293 -0.1298 -0.4223 -0.1057
24697SOL    HW175532   3.533   5.363   6.227  1.0609  2.8523 -0.9007
24697SOL    HW275533   3.505   5.362   6.376 -0.0477 -2.4800 -0.9428
24698SOL     OW75534   7.657   2.950   2.558  0.1989  0.2925  0.1362
24698SOL    HW175535   7.702   2.979   2.479  0.1602  1.3426  0.4875
24698SOL    HW275536   7.717   2.970   2.629  0.4531 -1.1118  0.3571
24699SOL     OW75537   3.537   2.479   9.214  0.2344  0.0028  0.6212
24699SOL    HW175538   3.451   2.498   9.176 -0.5284 -1.8712  1.3002
24699SOL    HW275539   3.552   2.548   9.278  0.5202  1.9215 -1.3766
24700SOL     OW75540   7.650   1.808  10.351 -0.8308 -0.9568 -0.0427
24700SOL    HW175541   7.558   1.781  10.342 -0.8336 -0.9048 -0.1712
24700SOL    HW275542   7.650   1.865  10.428 -1.4196  1.2652 -1.6032
24701SOL     OW75543   7.024   5.035   8.883  0.3229 -0.2984 -0.7394
24701SOL    HW175544   7.011   5.045   8.978 -0.2254 -1.8030 -0.6279
24701SOL    HW275545   6.955   5.089   8.844  1.0223  0.9404 -0.3114
24702SOL     OW75546   7.955   6.061   9.638 -0.4404 -0.7678 -1.2463
24702SOL    HW175547   7.988   5.971   9.640  0.7755 -0.3386 -0.1104
24702SOL    HW275548   7.977   6.096   9.725 -2.2469  0.1660 -1.1287
24703SOL     OW75549   2.366   4.893   1.829  0.2192 -0.4231 -0.2061
24703SOL    HW175550   2.309   4.942   1.889  0.1219 -1.3386  0.4632
24703SOL    HW275551   2.337   4.920   1.742  0.8819  1.5210  0.1283
24704SOL     OW75552   1.423   1.859   1.085 -0.3043  0.1518 -0.3031
24704SOL    HW175553   1.478   1.873   1.008  1.0546  0.7578  0.7388
24704SOL    HW275554   1.333   1.857   1.051  0.2916  0.0793 -1.9256
24705SOL     OW75555   4.319   4.808  11.484 -0.0773 -0.3421  0.3204
24705SOL    HW175556   4.320   4.822  11.579  1.9741  0.0280  0.3042
24705SOL    HW275557   4.339   4.895  11.447  0.7180 -0.7888 -0.3466
24706SOL     OW75558   7.454   0.967  10.377  0.1648  0.3104 -0.5339
24706SOL    HW175559   7.362   0.942  10.380  0.8948 -2.7758  1.5136
24706SOL    HW275560   7.472   0.983  10.284 -2.8158  3.1335 -0.7613
24707SOL     OW75561   3.367   5.904   9.752 -0.2653 -0.1441 -0.2278
24707SOL    HW175562   3.379   5.873   9.842 -1.6710  1.3657  0.5284
24707SOL    HW275563   3.401   5.833   9.697 -0.5693 -1.6571  1.4657
24708SOL     OW75564   1.991   4.511   6.008 -0.4982 -0.0964  0.5354
24708SOL    HW175565   2.021   4.426   5.978  1.3022  0.4530  0.6226
24708SOL    HW275566   1.962   4.496   6.098  1.1044 -0.4108  1.0392
24709SOL     OW75567   5.041   5.058   9.585  0.2161  0.6716 -0.0672
24709SOL    HW175568   5.031   5.126   9.653  0.4592  1.0785 -0.4305
24709SOL    HW275569   4.966   5.000   9.598  0.3966  0.6010  0.7141
24710SOL     OW75570   0.362   2.691   0.143  0.2187 -0.3061  0.6571
24710SOL    HW175571   0.389   2.677   0.234  2.7007  0.5170  0.1337
24710SOL    HW275572   0.383   2.608   0.099 -0.2231 -0.4312  0.6836
24711SOL     OW75573   0.421   5.411   2.531 -0.0847 -0.6065 -0.0429
24711SOL    HW175574   0.438   5.430   2.439 -2.9942 -4.0133 -1.5157
24711SOL    HW275575   0.502   5.371   2.562  0.8810  0.4139 -1.1322
24712SOL     OW75576   3.041   2.743   4.250  0.0263  0.2393  0.2085
24712SOL    HW175577   3.086   2.671   4.207 -0.5548 -0.9130  1.4339
24712SOL    HW275578   2.981   2.778   4.184 -1.4014 -1.9650  0.2330
24713SOL     OW75579   0.310   4.431   8.568  0.3272  0.2228  0.4175
24713SOL    HW175580   0.263   4.370   8.625 -0.5212 -0.9260 -1.4257
24713SOL    HW275581   0.399   4.433   8.603 -0.5974  1.0460  2.9083
24714SOL     OW75582   7.446   0.442   0.174 -0.2566  0.0525 -0.8566
24714SOL    HW175583   7.497   0.454   0.254 -0.3283  0.2827 -0.8440
24714SOL    HW275584   7.477   0.360   0.137 -0.6628 -0.3826 -0.2538
24715SOL     OW75585   7.761   3.410   0.334  0.1953 -0.0641  0.2530
24715SOL    HW175586   7.709   3.483   0.299  1.8505  0.1895 -1.9332
24715SOL    HW275587   7.832   3.452   0.382  0.4597 -0.2622  0.0394
24716SOL     OW75588   2.623   3.262   3.851 -0.0973  0.4513 -0.0528
24716SOL    HW175589   2.634   3.215   3.933 -1.6811 -0.0086 -0.0776
24716SOL    HW275590   2.674   3.342   3.862 -0.8351  0.7234  1.6515
24717SOL     OW75591   4.493   1.083  12.368  0.1950  1.0789 -0.3039
24717SOL    HW175592   4.450   1.088  12.453 -0.8078  2.3402 -0.8466
24717SOL    HW275593   4.437   1.134  12.310  0.1044 -0.8780 -2.0563
24718SOL     OW75594   5.327   7.303   3.609 -1.0217 -0.3870  0.2065
24718SOL    HW175595   5.343   7.332   3.519  1.7570 -1.0131  0.3855
24718SOL    HW275596   5.232   7.290   3.614 -1.3807  0.6893 -2.2898
24719SOL     OW75597   6.207   3.915  11.468  0.2277 -0.5472 -0.0269
24719SOL    HW175598   6.212   3.862  11.548 -0.2139  0.6200  0.8103
24719SOL    HW275599   6.114   3.913  11.445 -0.0145  0.8093  0.7123
24720SOL     OW75600   5.616   7.026  12.134  0.0610 -0.1600  0.2913
24720SOL    HW175601   5.676   7.083  12.085  0.3882  0.2215  1.1172
24720SOL    HW275602   5.647   6.938  12.118  2.8510  0.1157  3.1614
24721SOL     OW75603   6.909   4.085  10.199  0.2890  0.3415  0.3100
24721SOL    HW175604   6.921   4.172  10.238  0.2075  0.1266  0.8239
24721SOL    HW275605   6.972   4.029  10.244 -0.5170 -0.1298  0.8787
24722SOL     OW75606   6.638   3.917  10.868 -0.2614  0.1930  0.1375
24722SOL    HW175607   6.567   3.933  10.930 -0.9618  0.7193 -0.7766
24722SOL    HW275608   6.708   3.880  10.921 -0.8909  0.5067  1.2181
24723SOL     OW75609   1.735   3.858   6.013 -0.3133  0.5789 -0.1579
24723SOL    HW175610   1.796   3.785   6.007 -0.9889  0.0634 -0.9229
24723SOL    HW275611   1.756   3.900   6.096 -0.4731 -0.9803  0.7032
24724SOL     OW75612   0.800   0.683   6.264  0.3703 -0.7213 -0.2359
24724SOL    HW175613   0.740   0.711   6.334 -0.4558 -0.2940 -1.1010
24724SOL    HW275614   0.883   0.669   6.309  0.1015  0.4725  0.6878
24725SOL     OW75615   7.282   1.673   4.706 -0.2235 -0.1610 -0.1911
24725SOL    HW175616   7.298   1.702   4.616  1.5752  0.4608  0.2829
24725SOL    HW275617   7.322   1.586   4.712  2.4882  1.0180  0.7470
24726SOL     OW75618   7.787   7.716   4.631  0.7412  0.4904 -0.3351
24726SOL    HW175619   7.865   7.697   4.579  1.0784  1.1886 -0.1021
24726SOL    HW275620   7.750   7.794   4.589 -0.5502 -0.5634 -1.2166
24727SOL     OW75621   7.025   2.754   5.538 -0.4612  0.4866  0.1979
24727SOL    HW175622   7.092   2.692   5.566  0.0342  1.2420  0.7242
24727SOL    HW275623   6.964   2.702   5.486  1.0257 -0.0518 -1.0845
24728SOL     OW75624   1.533   4.865   7.436 -0.3118  0.2652 -0.1356
24728SOL    HW175625   1.572   4.809   7.369  0.4083  0.7272 -0.1152
24728SOL    HW275626   1.586   4.944   7.434 -0.8126  0.6198  0.4027
24729SOL     OW75627   1.169   7.388   8.486  0.1717  0.3372 -0.1560
24729SOL    HW175628   1.132   7.383   8.574  1.3991 -0.7554  0.3256
24729SOL    HW275629   1.110   7.335   8.432 -2.0098  2.9782 -0.5827
24730SOL     OW75630   1.312   6.729  10.896 -0.1709 -0.3430  0.0104
24730SOL    HW175631   1.369   6.713  10.821  0.0880  0.7684 -0.0413
24730SOL    HW275632   1.266   6.810  10.875 -0.5253 -0.3271  0.8030
24731SOL     OW75633   3.936   1.294   2.110  0.1303 -0.0127  1.0956
24731SOL    HW175634   3.860   1.239   2.127  1.1128 -1.3438  1.3383
24731SOL    HW275635   3.996   1.275   2.182  1.6381 -0.7309 -0.2889
24732SOL     OW75636   5.470   0.960   7.164  0.2812 -0.0861 -0.1715
24732SOL    HW175637   5.528   1.009   7.222 -0.9118 -1.3911  2.2689
24732SOL    HW275638   5.393   1.016   7.154  0.1932 -0.1552  0.1081
24733SOL     OW75639   3.710   6.647   7.789  0.4449 -0.0765 -0.4841
24733SOL    HW175640   3.690   6.697   7.709  0.6028 -1.8912 -1.7166
24733SOL    HW275641   3.802   6.669   7.807 -0.0172  1.5186  0.1270
24734SOL     OW75642   7.935   3.994   8.790 -0.0115  0.2505  0.3852
24734SOL    HW175643   7.933   4.088   8.807 -0.1331  0.1730  0.7959
24734SOL    HW275644   8.011   3.983   8.732 -0.5874  0.7292 -0.4812
24735SOL     OW75645   4.971   2.449   7.312  0.1542 -0.1482  0.2413
24735SOL    HW175646   4.908   2.377   7.308 -0.0447 -0.0071  0.8018
24735SOL    HW275647   4.957   2.489   7.397  1.0613 -0.1637  0.4082
24736SOL     OW75648   4.878   1.802   1.319 -0.8364 -0.2052 -0.6146
24736SOL    HW175649   4.937   1.727   1.318  0.0351  0.4437 -0.1027
24736SOL    HW275650   4.819   1.786   1.392  0.3037  0.2893  0.4545
24737SOL     OW75651   6.518   3.743   0.127  0.0046  0.3441  0.7744
24737SOL    HW175652   6.450   3.808   0.145  0.6949  0.6025  2.6321
24737SOL    HW275653   6.488   3.664   0.172  0.8409  0.4179  1.4885
24738SOL     OW75654   2.639   7.816   6.837 -0.0652  0.2406  0.3069
24738SOL    HW175655   2.581   7.795   6.764  1.1773  0.5051 -0.7899
24738SOL    HW275656   2.612   7.905   6.863 -0.3615  0.2425  0.0118
24739SOL     OW75657   4.952   3.124   1.927  0.4434  0.1051  0.1201
24739SOL    HW175658   4.938   3.192   1.860  0.7480 -0.8987 -1.0041
24739SOL    HW275659   5.038   3.087   1.906  0.1742 -0.7969  0.5513
24740SOL     OW75660   0.333   5.277  10.219  0.2527 -0.5410  0.3391
24740SOL    HW175661   0.408   5.337  10.225 -1.6712  1.8631  3.2742
24740SOL    HW275662   0.282   5.310  10.145  0.5144 -0.1523  0.3301
24741SOL     OW75663   5.420   7.579   5.545 -0.1822 -0.0310  0.3260
24741SOL    HW175664   5.469   7.578   5.463  0.3666 -0.5764  0.6553
24741SOL    HW275665   5.345   7.522   5.529  0.5546 -1.0917  0.5770
24742SOL     OW75666   0.577   0.268   9.539 -0.2072 -0.0659  0.3886
24742SOL    HW175667   0.520   0.331   9.582  0.2507 -0.1645  1.1488
24742SOL    HW275668   0.663   0.309   9.539  0.3098 -1.0701  1.7691
24743SOL     OW75669   5.916   6.967   6.739  0.2474 -0.4509 -0.2477
24743SOL    HW175670   5.939   7.059   6.726  1.1973 -0.7027 -0.3675
24743SOL    HW275671   5.910   6.957   6.834 -0.6690 -0.0857 -0.2477
24744SOL     OW75672   6.496   4.612   2.533 -0.1786  0.0553  0.4693
24744SOL    HW175673   6.578   4.617   2.582  0.0162 -0.0407  0.1546
24744SOL    HW275674   6.492   4.522   2.501 -1.4890 -0.6225  2.3398
24745SOL     OW75675   0.100   5.134   4.739  0.0393  0.4876  0.1104
24745SOL    HW175676   0.038   5.169   4.803 -1.3172 -1.3622 -0.1217
24745SOL    HW275677   0.144   5.063   4.785  0.5581  0.4765 -0.3890
24746SOL     OW75678   1.142   5.439   1.748 -0.0892  0.2640  0.7082
24746SOL    HW175679   1.106   5.476   1.828 -1.0228 -2.5358  1.7177
24746SOL    HW275680   1.066   5.428   1.690  0.0944 -0.3235  0.5686
24747SOL     OW75681   4.511   1.546  11.852 -0.3042 -0.1271  0.2150
24747SOL    HW175682   4.547   1.457  11.851  0.5663  0.2212 -0.3752
24747SOL    HW275683   4.437   1.541  11.913  0.7294 -0.8631  1.4656
24748SOL     OW75684   1.245   4.756   6.432 -0.5252  0.3127  0.3648
24748SOL    HW175685   1.314   4.789   6.375 -1.4196  1.2024 -0.2354
24748SOL    HW275686   1.269   4.788   6.519  0.3880 -0.3168  0.3548
24749SOL     OW75687   1.010   3.288   2.584 -0.5425  0.0160  0.2709
24749SOL    HW175688   1.076   3.291   2.653  0.6157  0.9118 -0.8211
24749SOL    HW275689   1.021   3.203   2.543 -1.7732 -0.8492  1.6536
24750SOL     OW75690   5.325   1.837   0.856 -0.1901 -0.4371 -0.5043
24750SOL    HW175691   5.368   1.861   0.938 -1.0884 -0.7513  0.0669
24750SOL    HW275692   5.307   1.920   0.813 -0.2425 -0.2426 -0.1106
24751SOL     OW75693   6.474   6.232  10.016  0.3031  0.2344  0.6693
24751SOL    HW175694   6.497   6.177  10.092 -1.7896 -0.7487  0.6636
24751SOL    HW275695   6.530   6.200   9.946  0.4583 -0.6017  1.1608
24752SOL     OW75696   1.415   0.363  12.378  0.1865  0.2850  0.3998
24752SOL    HW175697   1.430   0.314  12.459  3.1474  1.3870  0.6227
24752SOL    HW275698   1.323   0.392  12.384 -0.8572 -2.8336  1.5016
24753SOL     OW75699   1.236   1.343   5.738  0.3503  0.0769 -0.4346
24753SOL    HW175700   1.214   1.276   5.673 -0.8680  1.3804 -1.4391
24753SOL    HW275701   1.171   1.330   5.808  0.6449 -0.2998 -0.2246
24754SOL     OW75702   3.486   0.363   9.494 -0.4065 -0.0768 -0.0476
24754SOL    HW175703   3.454   0.405   9.574 -1.3595 -0.3121 -0.3031
24754SOL    HW275704   3.576   0.338   9.515  0.4104  2.5188 -0.0401
24755SOL     OW75705   1.923   5.159   9.221  0.2236 -0.2300 -0.4724
24755SOL    HW175706   1.878   5.116   9.148  0.1598 -1.9615  0.5253
24755SOL    HW275707   1.943   5.246   9.189 -1.0646 -0.4663 -2.0554
24756SOL     OW75708   6.151   2.914   3.108 -0.2945  0.9679  0.3552
24756SOL    HW175709   6.178   2.994   3.062  1.4196  0.4075  0.3138
24756SOL    HW275710   6.230   2.885   3.154 -1.2340 -0.0038  1.4224
24757SOL     OW75711   7.175   7.817   7.578  0.1464 -0.3036  0.1525
24757SOL    HW175712   7.269   7.810   7.592  0.1153 -0.9898  0.0494
24757SOL    HW275713   7.138   7.750   7.636 -0.2964  0.1553  0.4061
24758SOL     OW75714   0.045   3.164   6.676  0.1799 -0.4008 -0.1410
24758SOL    HW175715  -0.029   3.135   6.729 -2.0498  1.1745 -2.1508
24758SOL    HW275716   0.014   3.245   6.635  2.7715 -0.0843 -1.6611
24759SOL     OW75717   2.857   1.198  11.925  0.0647 -0.0023  0.3242
24759SOL    HW175718   2.870   1.276  11.979  1.6515  0.9626 -1.3128
24759SOL    HW275719   2.892   1.126  11.977  0.3547  0.6705  1.0821
24760SOL     OW75720   1.098   3.469   4.951 -0.6097 -0.0174  0.0923
24760SOL    HW175721   1.011   3.449   4.987 -1.0286  1.9830  0.2913
24760SOL    HW275722   1.080   3.518   4.871  0.3541  0.2536  0.0337
24761SOL     OW75723   2.868   6.766   3.131  0.6374 -0.4532 -0.1616
24761SOL    HW175724   2.793   6.826   3.128  0.4630 -0.5393  1.5110
24761SOL    HW275725   2.850   6.702   3.063 -1.9962 -1.7617  1.5911
24762SOL     OW75726   1.378   3.452   1.133 -0.4839 -0.1705 -0.0673
24762SOL    HW175727   1.424   3.442   1.216 -2.3601 -1.3737  0.9112
24762SOL    HW275728   1.285   3.455   1.157 -1.0023  1.6698 -1.9691
24763SOL     OW75729   7.594   3.874   8.170 -0.1142  0.1575  1.1653
24763SOL    HW175730   7.508   3.886   8.129  1.1586 -0.4635 -1.9061
24763SOL    HW275731   7.612   3.780   8.161  0.9832  0.3165  1.5946
24764SOL     OW75732   6.076   0.163   4.851 -0.0047  0.2752 -0.1324
24764SOL    HW175733   6.022   0.106   4.797 -1.0813  1.1392  0.0018
24764SOL    HW275734   6.148   0.107   4.880 -0.5285 -0.7550 -0.7654
24765SOL     OW75735   2.737   5.962   4.385  0.1930  0.1419 -0.0066
24765SOL    HW175736   2.746   5.885   4.440  1.6946 -0.2661 -0.7740
24765SOL    HW275737   2.717   5.926   4.298 -0.5157  0.7045 -0.0891
24766SOL     OW75738   6.335   5.827  12.347 -0.4273  0.2657  0.4766
24766SOL    HW175739   6.422   5.790  12.361 -0.3580  0.8508  1.7578
24766SOL    HW275740   6.334   5.907  12.400 -0.5441  2.2104 -2.2469
24767SOL     OW75741   3.048   2.556   3.338  0.4944  0.3078 -0.1252
24767SOL    HW175742   3.108   2.601   3.398  0.0285  2.9553 -1.4869
24767SOL    HW275743   3.075   2.464   3.342  4.0041  1.2088  0.0821
24768SOL     OW75744   7.792   7.033   6.270  0.1224  0.4145 -0.4063
24768SOL    HW175745   7.864   7.019   6.331  0.6849  1.8726 -0.6884
24768SOL    HW275746   7.833   7.076   6.195 -0.8893  0.4105 -0.9802
24769SOL     OW75747   5.095   5.156   1.631  1.1353 -0.4248  0.1402
24769SOL    HW175748   5.060   5.243   1.610 -0.9574 -0.5199  2.7318
24769SOL    HW275749   5.141   5.129   1.552 -0.0902  2.0938 -1.5606
24770SOL     OW75750   4.063   5.103   1.089  0.3838 -0.3795  0.0691
24770SOL    HW175751   4.001   5.145   1.149 -1.5276 -0.8424 -1.4499
24770SOL    HW275752   4.055   5.009   1.109 -1.2416 -0.6770 -1.6305
24771SOL     OW75753   4.533   7.700   9.622  0.0051 -0.3249  0.6770
24771SOL    HW175754   4.553   7.742   9.705  0.6524 -0.9075  0.8197
24771SOL    HW275755   4.598   7.734   9.561 -0.6588  0.3413  0.3150
24772SOL     OW75756   0.419   5.646   4.116  0.8082 -0.0970 -0.0025
24772SOL    HW175757   0.371   5.713   4.066  1.0061 -0.2423 -0.3904
24772SOL    HW275758   0.353   5.605   4.171 -0.0516 -1.9631 -2.2638
24773SOL     OW75759   6.635   4.018  10.272 -0.9894  0.3701  0.2081
24773SOL    HW175760   6.586   3.939  10.252 -0.5476  0.3194 -0.7211
24773SOL    HW275761   6.727   3.994  10.260 -0.8102  0.8609  0.5207
24774SOL     OW75762   2.751   0.100   9.002  0.0207 -0.3715  0.4274
24774SOL    HW175763   2.698   0.032   8.960 -0.7854  0.8821 -0.6690
24774SOL    HW275764   2.714   0.182   8.970  0.1704  0.6390  2.6646
24775SOL     OW75765   4.535   0.006   3.420  0.2957  0.4030  0.2945
24775SOL    HW175766   4.606  -0.046   3.384 -1.4935 -1.2468 -1.0504
24775SOL    HW275767   4.573   0.093   3.433  2.0894  0.0435 -1.9675
24776SOL     OW75768   1.448   7.089   8.131 -0.1782 -0.1302 -0.3270
24776SOL    HW175769   1.490   7.033   8.195 -0.0696  0.6559  0.3096
24776SOL    HW275770   1.458   7.043   8.048 -0.0761 -1.0249  0.1783
24777SOL     OW75771   3.505   3.444  11.415 -0.3542 -0.8336 -0.4518
24777SOL    HW175772   3.518   3.361  11.460  0.0013 -0.1823  0.6587
24777SOL    HW275773   3.591   3.484  11.411 -0.7167  0.0284  0.0993
24778SOL     OW75774   7.000   1.512   6.524  0.0954  0.4029  0.0837
24778SOL    HW175775   6.986   1.579   6.456  0.5281 -0.1440 -0.5556
24778SOL    HW275776   7.010   1.562   6.605  2.9432  1.3206 -0.7225
24779SOL     OW75777   2.867   2.936   3.502 -0.1502  0.6753 -0.0203
24779SOL    HW175778   2.807   2.955   3.573 -0.2348  0.0872  0.0662
24779SOL    HW275779   2.933   3.005   3.508  0.1628  0.3041  0.9828
24780SOL     OW75780   2.987   7.109   9.782 -0.4815  0.7270 -0.0199
24780SOL    HW175781   2.999   7.190   9.732 -0.7153  0.5211 -0.4171
24780SOL    HW275782   3.063   7.104   9.840 -1.4646  2.2848  1.5018
24781SOL     OW75783   4.062   6.586   9.256 -0.0631  0.2890  0.1443
24781SOL    HW175784   4.003   6.656   9.284  0.3651  1.2212 -1.1893
24781SOL    HW275785   4.040   6.572   9.164  0.1393 -1.0608  0.2886
24782SOL     OW75786   4.548   6.029   6.630 -0.2633  0.4341 -0.3711
24782SOL    HW175787   4.484   6.036   6.559 -2.2590 -0.2850  1.2521
24782SOL    HW275788   4.523   6.098   6.692  1.0897  0.6809 -0.0605
24783SOL     OW75789   1.046   2.035   6.851 -0.3412  0.0709 -0.4258
24783SOL    HW175790   1.029   1.946   6.881 -1.0138  0.7152  1.2706
24783SOL    HW275791   0.969   2.084   6.880  0.6512  1.4684 -0.0664
24784SOL     OW75792   2.805   0.288   2.023 -0.1773 -0.1873  0.2293
24784SOL    HW175793   2.899   0.295   2.038  0.1556 -0.1227 -1.6807
24784SOL    HW275794   2.793   0.310   1.931 -2.4421  3.0770  1.0874
24785SOL     OW75795   2.956   6.402  11.187 -0.3094 -0.1365 -0.6097
24785SOL    HW175796   2.952   6.496  11.172 -0.6971  0.1004  0.7656
24785SOL    HW275797   2.929   6.362  11.104  0.5082  0.9364 -1.4093
24786SOL     OW75798   6.610   4.832   1.993  0.5728 -0.0114  0.1555
24786SOL    HW175799   6.554   4.763   2.027 -0.8938  1.9818  2.0264
24786SOL    HW275800   6.696   4.814   2.033 -0.2978  0.3547  2.3620
24787SOL     OW75801   0.119   7.965   5.999  0.2598  0.0982  0.1789
24787SOL    HW175802   0.140   8.056   6.020 -0.6152  0.4632 -0.4572
24787SOL    HW275803   0.196   7.933   5.953  1.4016 -0.1122  2.1002
24788SOL     OW75804   0.824   6.255  10.267  0.1927  0.9793  0.1238
24788SOL    HW175805   0.840   6.210  10.184  1.5232  1.0464  0.3181
24788SOL    HW275806   0.805   6.185  10.330  1.1063  0.7583  0.1713
24789SOL     OW75807   4.702   5.216   2.935  0.0449  0.0413 -0.1067
24789SOL    HW175808   4.756   5.295   2.923 -0.5926  0.5589  0.3101
24789SOL    HW275809   4.635   5.223   2.867 -0.1091 -0.0515  0.0351
24790SOL     OW75810   6.293   5.191   2.078  0.2563  0.1669 -0.1634
24790SOL    HW175811   6.248   5.106   2.081  1.6040 -0.5595  1.5641
24790SOL    HW275812   6.363   5.179   2.014  1.4361 -0.6192  1.2065
24791SOL     OW75813   4.615   2.516   6.098  0.2389 -0.0195  0.5949
24791SOL    HW175814   4.536   2.567   6.115 -0.1006 -0.4251  0.2781
24791SOL    HW275815   4.656   2.559   6.023 -0.5990 -0.7966 -0.3437
24792SOL     OW75816   0.185   0.133   4.242  0.1737  0.3007  0.3231
24792SOL    HW175817   0.205   0.049   4.201  0.2751 -0.8628  2.5603
24792SOL    HW275818   0.106   0.116   4.292 -0.2743  1.8019  0.1563
24793SOL     OW75819   2.295   0.833   8.322 -0.0515  0.1357  0.0156
24793SOL    HW175820   2.383   0.867   8.306  0.0544 -0.0124  0.2782
24793SOL    HW275821   2.309   0.743   8.352 -0.2601  0.2854  0.5816
24794SOL     OW75822   5.810   1.667   5.749 -0.4776  0.4411 -0.0518
24794SOL    HW175823   5.783   1.755   5.723 -2.1633  0.3717  1.2630
24794SOL    HW275824   5.743   1.639   5.812  0.1115 -1.7150 -0.2986
24795SOL     OW75825   4.872   1.437  10.040 -0.3286 -0.6081  0.4215
24795SOL    HW175826   4.805   1.503  10.060 -0.3868 -0.6723  0.4409
24795SOL    HW275827   4.876   1.436   9.944  0.8294  0.5729  0.4385
24796SOL     OW75828   0.632   4.083   9.012 -0.4293 -0.0121  0.3529
24796SOL    HW175829   0.580   4.095   8.933 -1.2757  0.5143  0.9744
24796SOL    HW275830   0.568   4.079   9.083  0.1754 -2.2172  0.8771
24797SOL     OW75831   5.359   0.679   5.245  0.5788 -0.1451  0.5149
24797SOL    HW175832   5.417   0.603   5.233 -1.1714 -1.3374 -0.9485
24797SOL    HW275833   5.280   0.642   5.284  0.2214  1.2140  1.1207
24798SOL     OW75834   3.524   2.828   3.361 -0.1301 -0.8031 -0.6363
24798SOL    HW175835   3.571   2.910   3.379 -0.3920 -0.8547  0.3497
24798SOL    HW275836   3.473   2.847   3.282 -1.5016  0.5768  0.5087
24799SOL     OW75837   1.489   5.066   6.065 -0.2839 -0.0635  0.1058
24799SOL    HW175838   1.548   5.141   6.079  2.3076 -1.8703 -0.3936
24799SOL    HW275839   1.459   5.075   5.975 -1.5717  1.3415  0.6287
24800SOL     OW75840   2.758   0.692  10.842  0.2035 -0.2461  0.4089
24800SOL    HW175841   2.814   0.620  10.871  1.6224  0.5404 -0.2598
24800SOL    HW275842   2.786   0.708  10.752 -1.4777 -0.1519 -0.1216
24801SOL     OW75843   3.293   1.262   0.275 -0.3805  0.1346  0.3184
24801SOL    HW175844   3.370   1.233   0.226 -1.7094 -0.5849 -1.4745
24801SOL    HW275845   3.328   1.297   0.357  1.7415 -1.3085  0.1088
24802SOL     OW75846   1.715   7.187   0.052 -0.2051 -0.1435 -0.0652
24802SOL    HW175847   1.782   7.233   0.002 -0.8310  0.5427 -0.2792
24802SOL    HW275848   1.689   7.249   0.120 -1.0685 -0.1620 -0.3664
24803SOL     OW75849   2.083   4.091   1.415  0.0951 -0.1127 -0.6412
24803SOL    HW175850   2.027   4.116   1.342 -1.0105  1.2641  0.6193
24803SOL    HW275851   2.065   3.999   1.429 -1.4708  0.1728 -0.6185
24804SOL     OW75852   2.040   1.921   3.765  0.1637  0.2024 -0.6326
24804SOL    HW175853   1.980   1.866   3.716 -0.2124  0.6130 -0.6418
24804SOL    HW275854   2.121   1.870   3.771 -0.5455 -0.8428  0.3927
24805SOL     OW75855   4.471   7.217  12.149 -0.3593 -0.0010  0.0481
24805SOL    HW175856   4.498   7.159  12.220  0.4576  1.8639  1.3160
24805SOL    HW275857   4.507   7.176  12.070  0.8484 -0.8287  0.9923
24806SOL     OW75858   5.674   4.792   9.330 -0.3633  0.0689  0.1605
24806SOL    HW175859   5.743   4.725   9.341  0.2140  0.7281  0.6857
24806SOL    HW275860   5.597   4.742   9.305 -0.0450 -0.8582  0.9157
24807SOL     OW75861   1.063   5.167   7.680 -0.1983 -0.0243  0.0000
24807SOL    HW175862   1.014   5.160   7.598  1.3122 -0.5683 -0.9134
24807SOL    HW275863   1.089   5.077   7.700  0.0563  0.1956  0.6872
24808SOL     OW75864   7.574   4.944   8.315 -0.3517 -0.5672  0.3550
24808SOL    HW175865   7.608   4.958   8.404 -0.8662 -0.0144  0.4684
24808SOL    HW275866   7.646   4.970   8.258 -0.5599  0.5898  0.5972
24809SOL     OW75867   2.651   4.500   0.579  0.1953  0.4365  0.5936
24809SOL    HW175868   2.592   4.516   0.505 -0.4905 -0.0896  1.0152
24809SOL    HW275869   2.603   4.530   0.655 -0.1476 -1.3136  1.1187
24810SOL     OW75870   0.439   5.163   0.209 -0.0307 -0.6015  0.3013
24810SOL    HW175871   0.442   5.090   0.271  2.8413 -0.8917 -0.0438
24810SOL    HW275872   0.466   5.240   0.260  1.2410 -0.6314 -0.2894
24811SOL     OW75873   7.143   0.447   7.943 -0.0721  0.0893 -0.1020
24811SOL    HW175874   7.133   0.353   7.934 -0.8242  0.3469 -3.0618
24811SOL    HW275875   7.066   0.484   7.901  1.3048  2.0126 -1.1126
24812SOL     OW75876   6.361   4.136  10.240  0.3326 -0.2714  0.1073
24812SOL    HW175877   6.341   4.181  10.158  0.8740 -0.4532 -0.1312
24812SOL    HW275878   6.450   4.103  10.228 -0.2142 -1.8226  0.0841
24813SOL     OW75879   4.983   3.327   3.744  0.4764 -0.2762  0.1475
24813SOL    HW175880   5.014   3.408   3.783 -1.5221  0.4987  0.2482
24813SOL    HW275881   4.980   3.344   3.650 -0.0281 -0.1820  0.1760
24814SOL     OW75882   3.271   1.572   9.814 -0.2599 -0.3015  0.2345
24814SOL    HW175883   3.352   1.552   9.768 -0.1315 -0.6213  0.5944
24814SOL    HW275884   3.231   1.643   9.763 -0.6982 -1.4261 -1.0265
24815SOL     OW75885   0.430   0.459   2.668  0.3896 -0.6120 -0.2997
24815SOL    HW175886   0.518   0.497   2.661  0.4338 -0.9333 -1.7607
24815SOL    HW275887   0.397   0.492   2.751  1.8970 -0.4957  0.2919
24816SOL     OW75888   4.224   0.144  10.462  0.3209  0.2074  0.2935
24816SOL    HW175889   4.230   0.049  10.461  1.7559  0.2782  0.5594
24816SOL    HW275890   4.135   0.162  10.493 -0.0255 -1.0282  0.0724
24817SOL     OW75891   7.046   2.913   6.033  0.1968  0.1972 -0.4129
24817SOL    HW175892   7.085   2.952   6.111  0.6584 -0.7208 -0.1733
24817SOL    HW275893   7.120   2.878   5.984 -0.3051 -1.5650  0.0424
24818SOL     OW75894   1.168   7.675   6.757 -0.2336  0.1426 -0.0823
24818SOL    HW175895   1.259   7.653   6.779  0.2082  0.9384 -1.0573
24818SOL    HW275896   1.116   7.629   6.823  0.8623 -0.4894  0.3723
24819SOL     OW75897   6.241   3.935   2.855 -0.3118 -0.1085 -0.0906
24819SOL    HW175898   6.267   4.026   2.842 -0.7870  0.1114  0.4809
24819SOL    HW275899   6.231   3.901   2.766  1.5402 -0.1022 -0.3401
24820SOL     OW75900   2.422   0.959   5.134  0.1172 -0.0048  0.6572
24820SOL    HW175901   2.407   0.949   5.227  0.6196 -0.3190  0.7053
24820SOL    HW275902   2.337   0.944   5.093 -0.3105  1.0455  1.1261
24821SOL     OW75903   3.526   1.402  10.259  0.1959 -0.5546  0.4907
24821SOL    HW175904   3.563   1.447  10.183 -1.4252  0.5787  0.3295
24821SOL    HW275905   3.552   1.456  10.333 -0.7670  0.0381  0.4132
24822SOL     OW75906   0.488   4.842   1.167 -0.3473 -0.6330  0.1670
24822SOL    HW175907   0.434   4.894   1.107 -1.8397 -0.6516  1.4210
24822SOL    HW275908   0.575   4.844   1.129 -0.8715  0.8277 -1.0568
24823SOL     OW75909   2.182   6.145   9.313 -0.0873  0.4694  0.0273
24823SOL    HW175910   2.234   6.207   9.261  0.6473 -0.9461 -1.0085
24823SOL    HW275911   2.163   6.192   9.395  1.1698  1.7356 -0.3642
24824SOL     OW75912   0.269   4.674  11.027  0.1380 -0.9114 -0.2491
24824SOL    HW175913   0.314   4.639  10.950  0.3889  0.4631 -0.7639
24824SOL    HW275914   0.304   4.763  11.036  1.4280 -1.5947  2.4994
24825SOL     OW75915   0.267   0.756  11.033  0.0637  0.0743  0.5122
24825SOL    HW175916   0.308   0.741  11.119 -1.3483 -2.2140  0.8762
24825SOL    HW275917   0.309   0.692  10.975 -0.9643 -0.3509  0.2177
24826SOL     OW75918   1.166   0.132   0.832  0.0119  0.1437 -0.4430
24826SOL    HW175919   1.117   0.093   0.760 -1.0794  1.6183 -0.5375
24826SOL    HW275920   1.170   0.225   0.811 -0.0405  0.5580  1.2325
24827SOL     OW75921   0.473   6.050   7.135 -0.6039  0.6295  0.0212
24827SOL    HW175922   0.492   6.144   7.143  1.2227  0.1574  1.9206
24827SOL    HW275923   0.482   6.016   7.223  1.1438 -1.7713 -0.9860
24828SOL     OW75924   2.822   3.112  10.261  0.2613 -0.6051 -0.5980
24828SOL    HW175925   2.861   3.052  10.325 -0.8585 -0.5706  0.1497
24828SOL    HW275926   2.785   3.183  10.314 -1.5092 -1.0484 -1.1803
24829SOL     OW75927   6.000   5.370   3.602 -0.0186 -0.4534  0.2373
24829SOL    HW175928   6.074   5.371   3.662 -0.2304 -4.0053  0.7573
24829SOL    HW275929   6.039   5.385   3.516  1.3266 -2.0267  0.5294
24830SOL     OW75930   5.973   1.571   1.908 -0.1348  0.2391  0.1860
24830SOL    HW175931   6.015   1.557   1.823 -0.6128 -1.8619  0.2389
24830SOL    HW275932   5.939   1.485   1.932 -1.2845  1.1080  1.8437
24831SOL     OW75933   0.984   4.580  10.706  0.1025  0.4878  0.1810
24831SOL    HW175934   1.053   4.537  10.655 -0.4914 -1.3909  0.8888
24831SOL    HW275935   0.946   4.511  10.759 -2.1034  1.5479  0.1002
24832SOL     OW75936   4.340   5.037   4.782 -0.2474 -0.4863  0.3567
24832SOL    HW175937   4.259   5.035   4.730  0.4852  0.5437 -0.8666
24832SOL    HW275938   4.309   5.055   4.871 -1.3735  0.1264 -0.1230
24833SOL     OW75939   5.317   0.857   3.435 -0.2173  0.1707  0.4117
24833SOL    HW175940   5.281   0.768   3.432 -0.8596  0.4485 -0.5143
24833SOL    HW275941   5.401   0.849   3.388 -0.0490 -0.0360  0.7399
24834SOL     OW75942   3.004   2.638   8.640 -0.1167 -0.0754  0.0364
24834SOL    HW175943   3.044   2.551   8.636 -1.0011 -0.5828  1.7571
24834SOL    HW275944   3.055   2.685   8.706 -1.3741 -0.2324  1.1484
24835SOL     OW75945   6.408   0.221  10.373 -0.5802  0.1343  0.4102
24835SOL    HW175946   6.331   0.272  10.396  0.5705  0.6043  3.8920
24835SOL    HW275947   6.482   0.280  10.391  0.6858 -1.8031  2.0305
24836SOL     OW75948   6.563   0.497   2.429 -0.1267 -0.2813 -0.3883
24836SOL    HW175949   6.522   0.422   2.386 -1.0622  1.0630 -1.9828
24836SOL    HW275950   6.657   0.483   2.419 -0.2501 -1.6341  0.1152
24837SOL     OW75951   6.139   4.536  10.513 -0.7961 -0.3492  0.2557
24837SOL    HW175952   6.213   4.528  10.574 -0.7393  1.7097  0.5408
24837SOL    HW275953   6.130   4.449  10.474  1.1897 -0.8888  0.8915
24838SOL     OW75954   4.450   0.198   9.792  0.7424 -0.4630 -0.7987
24838SOL    HW175955   4.438   0.287   9.759  0.3468 -0.7169 -1.3688
24838SOL    HW275956   4.527   0.165   9.746  0.5259 -0.6223 -1.0507
24839SOL     OW75957   0.660   4.142  12.424  0.6514  0.2307 -0.5156
24839SOL    HW175958   0.713   4.086  12.482 -1.7782 -0.5183  1.1528
24839SOL    HW275959   0.649   4.090  12.345 -0.5185 -1.2086  0.5316
24840SOL     OW75960   4.089   7.387   1.103 -0.2136  0.5021 -0.7346
24840SOL    HW175961   4.016   7.429   1.058 -0.1887 -0.0140 -1.2612
24840SOL    HW275962   4.069   7.294   1.100 -0.8526  0.5079  1.4504
24841SOL     OW75963   0.987   2.296   9.013  0.6043 -0.5590 -0.5796
24841SOL    HW175964   0.924   2.333   8.952  0.2536 -0.5399 -0.2136
24841SOL    HW275965   1.053   2.256   8.958 -0.2518 -1.4640 -0.9858
24842SOL     OW75966   2.011   0.144  11.411 -0.1119 -0.4870  0.1522
24842SOL    HW175967   2.105   0.154  11.402  0.0540 -1.6841  0.4088
24842SOL    HW275968   1.997   0.050  11.419 -1.0919 -0.1940  2.8554
24843SOL     OW75969   6.785   0.206  10.225 -0.6931 -0.4286 -0.0378
24843SOL    HW175970   6.868   0.160  10.235 -0.3430 -0.1528 -1.5321
24843SOL    HW275971   6.795   0.285  10.280  0.1109 -0.2927 -0.3714
24844SOL     OW75972   3.666   7.116   2.836 -0.0235 -0.3409  0.2742
24844SOL    HW175973   3.685   7.173   2.910 -0.7715 -1.3317  1.2578
24844SOL    HW275974   3.597   7.161   2.787  1.2979  0.8866 -0.5231
24845SOL     OW75975   0.732   1.571   9.076 -0.2915 -0.0532 -0.0017
24845SOL    HW175976   0.731   1.664   9.057  1.4893  0.0236  0.0850
24845SOL    HW275977   0.648   1.553   9.118 -0.5365  1.5679  0.2353
24846SOL     OW75978   2.613   3.634   2.580  0.4483  0.2447  0.2803
24846SOL    HW175979   2.640   3.726   2.573  1.1376 -0.0596 -1.5526
24846SOL    HW275980   2.524   3.633   2.545  0.3117  0.2463  0.6169
24847SOL     OW75981   3.353   7.275   3.129  0.7204 -0.4569 -0.1204
24847SOL    HW175982   3.434   7.248   3.172  0.3071 -0.4103  0.7155
24847SOL    HW275983   3.351   7.224   3.048  1.4938 -0.5832 -0.0696
24848SOL     OW75984   5.315   6.473  12.429 -0.3343  0.5778 -0.0039
24848SOL    HW175985   5.286   6.563  12.416  0.4776  0.5652 -2.2359
24848SOL    HW275986   5.409   6.481  12.446  0.0250  0.1123 -1.6037
24849SOL     OW75987   6.068   7.311  12.451 -0.3765  0.1272  0.0396
24849SOL    HW175988   6.158   7.286  12.469 -0.1957  0.4227 -0.4308
24849SOL    HW275989   6.027   7.318  12.537  0.5090  1.6783  0.3762
24850SOL     OW75990   1.525   0.696   1.764 -0.4197  0.3078 -0.5844
24850SOL    HW175991   1.601   0.669   1.815 -0.6936  0.4187 -0.1094
24850SOL    HW275992   1.526   0.792   1.768 -1.2524  0.2857  0.4315
24851SOL     OW75993   4.323   4.045   9.914 -0.1122  0.6822  0.5108
24851SOL    HW175994   4.335   3.962   9.869 -1.0735  0.7288  0.1478
24851SOL    HW275995   4.252   4.088   9.867 -0.7162  1.0055  1.6682
24852SOL     OW75996   5.820   4.971   5.526  0.4197 -0.1219  0.2050
24852SOL    HW175997   5.743   5.026   5.540  1.6552  2.1351 -1.2522
24852SOL    HW275998   5.800   4.890   5.571 -1.3827  1.6140  2.7978
24853SOL     OW75999   5.182   3.682   8.296 -0.0623 -0.0702  0.3337
24853SOL    HW176000   5.096   3.693   8.255  0.4600 -1.2894 -1.1623
24853SOL    HW276001   5.236   3.640   8.229  1.6211  0.3602  1.3531
24854SOL     OW76002   7.071   5.695  11.932 -0.5762  0.0917 -0.2702
24854SOL    HW176003   7.147   5.642  11.953 -0.8076 -0.6850 -1.3089
24854SOL    HW276004   7.080   5.773  11.987  0.2864 -0.5664  0.5526
24855SOL     OW76005   5.477   3.972   1.507  0.2888  0.3932 -0.0626
24855SOL    HW176006   5.496   4.066   1.503 -0.1669  0.4622 -0.9040
24855SOL    HW276007   5.461   3.947   1.415 -2.9612  0.2108  0.4318
24856SOL     OW76008   2.819   0.698   5.714 -0.0312 -0.0782 -0.3552
24856SOL    HW176009   2.908   0.709   5.682 -0.7202  1.2084 -1.9686
24856SOL    HW276010   2.825   0.718   5.808  1.4286 -0.4440 -0.3437
24857SOL     OW76011   1.170   2.078   8.513 -0.4836  0.4203  0.8639
24857SOL    HW176012   1.204   2.018   8.579  0.0287  1.7569  1.8634
24857SOL    HW276013   1.237   2.146   8.506 -0.1929 -0.0178 -1.5522
24858SOL     OW76014   0.599   5.430   4.121  0.3590 -0.0793 -0.2426
24858SOL    HW176015   0.530   5.496   4.131  1.7544  1.2441  1.1460
24858SOL    HW276016   0.565   5.353   4.167 -0.9280 -0.0652 -1.1258
24859SOL     OW76017   7.799   3.145   4.989 -0.1886  0.2856 -0.0896
24859SOL    HW176018   7.730   3.163   4.926 -0.2384  0.2568 -0.0427
24859SOL    HW276019   7.850   3.074   4.950  1.1279  1.7367 -1.1678
24860SOL     OW76020   6.298   1.827   5.689  0.2901 -0.6177 -0.0301
24860SOL    HW176021   6.355   1.897   5.721  1.0685 -0.1959 -2.1961
24860SOL    HW276022   6.209   1.860   5.706  0.6535  0.5967 -0.3503
24861SOL     OW76023   7.855   0.312   4.535 -0.3818 -0.2547 -0.3978
24861SOL    HW176024   7.859   0.243   4.469  2.2472  0.0146 -0.6055
24861SOL    HW276025   7.824   0.389   4.487 -0.0346 -0.4559 -0.9555
24862SOL     OW76026   2.692   3.145   1.367 -0.3415 -0.3014 -0.4325
24862SOL    HW176027   2.612   3.098   1.343 -0.0745 -0.8837 -0.1888
24862SOL    HW276028   2.741   3.152   1.285 -0.1069 -0.9823 -0.3515
24863SOL     OW76029   7.124   5.053   7.350 -0.1763  0.3464 -0.0111
24863SOL    HW176030   7.078   4.998   7.413 -0.1426  0.5796  0.2197
24863SOL    HW276031   7.056   5.109   7.313 -0.1608  0.3573 -0.0230
24864SOL     OW76032   6.804   1.687   1.840 -0.3623  0.0543 -0.3171
24864SOL    HW176033   6.818   1.637   1.921 -0.0183  0.4113 -0.1499
24864SOL    HW276034   6.871   1.755   1.843 -1.4242  1.1255 -0.0603
24865SOL     OW76035   2.084   3.863   5.847 -0.4458 -0.0305  0.0037
24865SOL    HW176036   2.045   3.913   5.775  1.3873  2.2705  0.4822
24865SOL    HW276037   2.112   3.781   5.807  1.0870  1.4315 -2.1447
24866SOL     OW76038   2.390   4.117   3.300  0.2621  0.2985 -0.2782
24866SOL    HW176039   2.451   4.138   3.371  2.2283  1.5304 -2.1835
24866SOL    HW276040   2.417   4.030   3.271 -1.4570 -0.8323  1.2751
24867SOL     OW76041   0.611   6.742   2.607  0.1492 -0.1326  0.0404
24867SOL    HW176042   0.518   6.761   2.590 -0.0122 -0.5826  0.4068
24867SOL    HW276043   0.654   6.754   2.522 -0.1010  0.9075  0.0439
24868SOL     OW76044   0.075   7.042   1.648 -0.5507  0.1287 -0.2744
24868SOL    HW176045   0.078   7.024   1.555 -0.8939  0.2775 -0.3147
24868SOL    HW276046   0.123   6.970   1.688  0.6450  0.6897 -0.6483
24869SOL     OW76047   7.601   5.071   1.091  0.5227  0.2618 -1.2002
24869SOL    HW176048   7.683   5.093   1.134  0.4216 -1.3569 -0.1062
24869SOL    HW276049   7.607   5.113   1.005  1.7821  1.4966 -0.5437
24870SOL     OW76050   1.128   4.598   7.067 -0.0526  0.4440 -0.0934
24870SOL    HW176051   1.046   4.648   7.066 -0.7823 -0.4078  3.1318
24870SOL    HW276052   1.101   4.508   7.082  1.4002  0.3015  2.2589
24871SOL     OW76053   3.563   4.799   9.514  0.3474  0.4274 -0.3150
24871SOL    HW176054   3.601   4.837   9.435 -1.6330  1.6304 -0.7353
24871SOL    HW276055   3.476   4.769   9.488  0.1095 -0.2385  1.1265
24872SOL     OW76056   4.471   0.718   4.523  0.4758  0.0842  0.5337
24872SOL    HW176057   4.467   0.701   4.429 -0.0147 -1.6608  0.8430
24872SOL    HW276058   4.381   0.707   4.554  1.0260 -1.9106  1.5854
24873SOL     OW76059   6.323   4.488   2.262 -0.1020  0.2645  0.1074
24873SOL    HW176060   6.389   4.503   2.195 -0.4800 -0.2050 -0.3853
24873SOL    HW276061   6.251   4.445   2.215 -0.6533  0.5377  0.6772
24874SOL     OW76062   2.143   1.769   2.298 -0.1404  0.1364 -0.7497
24874SOL    HW176063   2.116   1.854   2.263 -0.6194  0.0835 -0.5021
24874SOL    HW276064   2.236   1.781   2.318 -0.5199  1.0462  0.6011
24875SOL     OW76065   0.569   4.103  11.382 -0.7196 -0.2796  0.6990
24875SOL    HW176066   0.568   4.077  11.290  0.4951  0.1241  0.5529
24875SOL    HW276067   0.485   4.148  11.395 -1.0996 -0.7336 -0.0864
24876SOL     OW76068   3.015   6.794   2.352 -0.2384 -0.0039 -0.0662
24876SOL    HW176069   2.942   6.838   2.396  0.0390  1.0435 -0.6182
24876SOL    HW276070   3.053   6.861   2.295 -1.0639 -1.4947 -2.5305
24877SOL     OW76071   6.705   1.056   1.485  0.1522  0.4115  0.5529
24877SOL    HW176072   6.679   1.090   1.570 -0.9316  2.0992 -0.3945
24877SOL    HW276073   6.623   1.035   1.441  0.5864  1.2829 -0.7278
24878SOL     OW76074   4.727   0.285  12.444  0.9177  0.5253  0.2586
24878SOL    HW176075   4.794   0.216  12.437  0.8165  0.4580 -0.0552
24878SOL    HW276076   4.647   0.243  12.412  0.6304  0.4769  1.0368
24879SOL     OW76077   7.922   7.849   3.349  0.4413  0.6975  0.4876
24879SOL    HW176078   7.835   7.835   3.310 -1.1019  1.2916  3.4740
24879SOL    HW276079   7.959   7.921   3.297 -0.6334  0.1791 -1.1059
24880SOL     OW76080   6.284   7.654   3.994  0.6907 -0.1285 -0.8791
24880SOL    HW176081   6.294   7.569   3.950 -0.8050  0.2078 -1.9224
24880SOL    HW276082   6.228   7.636   4.069  0.4793 -0.0817 -1.0266
24881SOL     OW76083   7.520   0.417   8.275  0.1012 -0.7044 -0.0276
24881SOL    HW176084   7.590   0.459   8.226 -0.6424  0.5082 -0.0909
24881SOL    HW276085   7.477   0.489   8.323 -0.6680 -1.5134  0.5340
24882SOL     OW76086   6.436   7.655   4.654  0.7702  0.2947  0.0160
24882SOL    HW176087   6.453   7.746   4.628 -0.3287  0.6104  0.3769
24882SOL    HW276088   6.523   7.620   4.675  1.2351  1.1806 -0.3635
24883SOL     OW76089   1.651   2.794   1.583 -0.0166  0.1002  0.0794
24883SOL    HW176090   1.617   2.828   1.665 -0.2006 -0.0644  0.0714
24883SOL    HW276091   1.720   2.732   1.609  0.2119  0.3631  0.0979
24884SOL     OW76092   0.745   6.616   3.988 -0.1244 -0.5229 -0.6805
24884SOL    HW176093   0.724   6.547   4.051 -0.9812  2.0642  2.0935
24884SOL    HW276094   0.840   6.623   3.991 -0.1258 -0.7132  0.0383
24885SOL     OW76095   6.063   1.772  10.911  0.0548 -0.1812  0.0180
24885SOL    HW176096   6.049   1.866  10.921 -0.2036 -0.2726  0.5581
24885SOL    HW276097   6.053   1.736  11.000  3.3104 -0.3402  0.4263
24886SOL     OW76098   5.313   5.349  12.003 -0.0012  0.0991  0.3018
24886SOL    HW176099   5.339   5.350  12.095 -0.4518  1.1960  0.4336
24886SOL    HW276100   5.271   5.263  11.992  0.2944 -0.1558  1.0446
24887SOL     OW76101   1.092   2.786   2.580 -0.1742  0.1916  0.2244
24887SOL    HW176102   1.165   2.744   2.535 -1.2274 -0.3053 -1.1039
24887SOL    HW276103   1.091   2.746   2.666 -0.3900 -1.6802 -0.5945
24888SOL     OW76104   2.378   0.919   7.617 -0.3332 -0.1068  0.1495
24888SOL    HW176105   2.337   0.854   7.559  1.3308 -1.8702  0.8547
24888SOL    HW276106   2.333   1.001   7.596 -1.7072 -1.2323 -1.6218
24889SOL     OW76107   4.722   1.133  12.090  0.3795 -0.0242  0.4854
24889SOL    HW176108   4.758   1.194  12.025  0.5357 -0.9980 -0.3661
24889SOL    HW276109   4.628   1.131  12.071  0.4009 -0.1830  0.3970
24890SOL     OW76110   1.119   0.167   2.007  0.2340 -0.4676 -0.4574
24890SOL    HW176111   1.077   0.097   2.056 -1.6666 -0.7025 -2.2954
24890SOL    HW276112   1.136   0.130   1.921  1.5045  0.5911 -0.7024
24891SOL     OW76113   4.414   1.592   5.026  0.1910 -0.1887  0.2075
24891SOL    HW176114   4.456   1.588   4.940 -0.9933 -0.4417 -0.3832
24891SOL    HW276115   4.325   1.559   5.011 -0.4971  1.0975  1.2268
24892SOL     OW76116   2.337   0.377   4.771  0.2012  0.4226  0.7616
24892SOL    HW176117   2.274   0.310   4.742 -0.4729  0.6724  1.6029
24892SOL    HW276118   2.328   0.378   4.866  3.1569 -1.1912  1.1885
24893SOL     OW76119   5.964   6.699   6.696 -0.0168  0.0516 -0.1331
24893SOL    HW176120   5.946   6.793   6.701 -0.5504 -0.0783  0.6065
24893SOL    HW276121   6.041   6.686   6.751 -1.7235 -0.3502  2.3403
24894SOL     OW76122   2.242   4.780   5.441  0.4247 -0.6177 -0.9901
24894SOL    HW176123   2.152   4.801   5.417 -0.5419 -2.0571  1.0784
24894SOL    HW276124   2.244   4.787   5.537  2.2245 -1.6580 -0.9006
24895SOL     OW76125   6.236   4.258  12.181 -0.7554  0.0449  0.4405
24895SOL    HW176126   6.215   4.223  12.095  0.0419 -1.3045  0.7666
24895SOL    HW276127   6.310   4.206  12.211 -1.1430  0.3517  2.0281
24896SOL     OW76128   1.465   7.879   0.375  0.2713 -0.4317 -0.2132
24896SOL    HW176129   1.529   7.937   0.415  0.1265 -1.5563  1.7824
24896SOL    HW276130   1.493   7.791   0.400 -0.9809 -1.0635 -0.9053
24897SOL     OW76131   5.895   1.147   5.072  0.2123 -0.4947 -0.0807
24897SOL    HW176132   5.977   1.107   5.100  0.7581  0.7107  0.1448
24897SOL    HW276133   5.902   1.238   5.102 -0.2435  0.2071 -1.9749
24898SOL     OW76134   1.609   1.419  10.293  0.0772 -0.1919  0.0643
24898SOL    HW176135   1.532   1.474  10.276  0.3196 -0.1739 -1.0838
24898SOL    HW276136   1.615   1.362  10.215  3.0782  1.9859 -1.5103
24899SOL     OW76137   4.196   1.902   8.877 -0.1537 -0.6619  0.1957
24899SOL    HW176138   4.219   1.990   8.907 -1.6743 -0.8366  2.0237
24899SOL    HW276139   4.260   1.884   8.808  0.1826  1.8633 -0.2611
24900SOL     OW76140   7.089   4.114   5.900 -0.6645  0.6165  0.1517
24900SOL    HW176141   7.076   4.184   5.836  0.1594 -0.3094 -1.0721
24900SOL    HW276142   7.184   4.099   5.899 -1.0383 -2.4640 -1.8024
24901SOL     OW76143   0.705   0.647  11.409 -0.5293  0.0521 -0.3617
24901SOL    HW176144   0.612   0.667  11.413 -1.0226 -1.1873 -3.3809
24901SOL    HW276145   0.712   0.575  11.347  2.4436 -0.1339  0.0246
24902SOL     OW76146   6.591   3.552   3.291 -0.6246 -0.4594 -0.1470
24902SOL    HW176147   6.577   3.565   3.197 -2.3796 -0.2064  0.1187
24902SOL    HW276148   6.672   3.599   3.310  0.2193 -1.1998 -1.6714
24903SOL     OW76149   1.004   2.332  10.683 -0.0263  0.0680 -0.7069
24903SOL    HW176150   0.947   2.271  10.729 -1.0454  0.7604 -1.0084
24903SOL    HW276151   1.046   2.383  10.752 -0.1531 -0.1116 -0.4971
24904SOL     OW76152   7.551   4.432  11.589  0.0394  0.2599  0.2800
24904SOL    HW176153   7.637   4.408  11.625  0.9529  1.4115 -1.0235
24904SOL    HW276154   7.493   4.361  11.617  1.1214  0.0573  2.2146
24905SOL     OW76155   3.813   3.212  11.843  0.3319 -0.3251  0.0405
24905SOL    HW176156   3.786   3.162  11.920 -0.3278 -0.7763 -0.4709
24905SOL    HW276157   3.895   3.171  11.815 -0.7134 -1.8367 -0.9786
24906SOL     OW76158   3.314   7.078  10.236 -0.5313  0.2599 -0.5165
24906SOL    HW176159   3.403   7.110  10.245  0.2508 -0.7525 -3.4037
24906SOL    HW276160   3.313   6.993  10.280 -0.6323  1.0404  1.0525
24907SOL     OW76161   0.401   1.325   1.575 -0.1558 -0.7575  0.3096
24907SOL    HW176162   0.476   1.383   1.561 -1.3121  1.3415  2.1149
24907SOL    HW276163   0.352   1.329   1.494 -0.0141  0.5637  0.2656
24908SOL     OW76164   7.345   0.606   8.028  0.3522 -0.8108  0.3871
24908SOL    HW176165   7.322   0.675   8.090 -0.9602 -0.4150 -0.5040
24908SOL    HW276166   7.262   0.566   8.004  0.9297 -1.5903 -0.3906
24909SOL     OW76167   0.882   4.595   3.099 -0.2107 -0.0822  0.2913
24909SOL    HW176168   0.939   4.535   3.147 -0.5711  0.1224  0.9926
24909SOL    HW276169   0.804   4.603   3.154  0.1376  1.6202  0.6035
24910SOL     OW76170   7.675   6.261   1.936 -0.0834  0.2280 -0.2802
24910SOL    HW176171   7.620   6.197   1.890 -0.1312 -1.1892  1.6391
24910SOL    HW276172   7.719   6.211   2.005  1.5158  1.8719 -0.0066
24911SOL     OW76173   5.129   7.435  12.028  0.1378 -0.1067  0.3728
24911SOL    HW176174   5.123   7.342  12.049  0.0872 -0.4249 -0.9231
24911SOL    HW276175   5.048   7.454  11.981 -1.1292  1.2792  2.9312
24912SOL     OW76176   2.123   4.043   6.523  0.3045 -0.3138  0.1359
24912SOL    HW176177   2.129   3.982   6.596 -1.5051 -1.0546 -0.2677
24912SOL    HW276178   2.166   3.997   6.451 -1.3485 -1.3671 -0.2611
24913SOL     OW76179   2.292   1.235   5.222  0.1440 -0.0339  0.1331
24913SOL    HW176180   2.364   1.298   5.218  1.1202 -1.1099  0.1309
24913SOL    HW276181   2.303   1.181   5.143 -1.3809  0.5072 -0.4886
24914SOL     OW76182   0.775   3.281   3.982 -0.0786 -0.5564  0.5744
24914SOL    HW176183   0.805   3.292   4.072  1.3514  0.7372 -0.0105
24914SOL    HW276184   0.843   3.227   3.941  0.0777  0.1474 -0.1076
24915SOL     OW76185   2.564   7.941   4.876  0.7687 -0.4215  0.0460
24915SOL    HW176186   2.487   7.916   4.826  0.0669  2.0764 -0.2884
24915SOL    HW276187   2.541   7.923   4.967 -0.2246  0.2261 -0.0562
24916SOL     OW76188   5.986   4.782   2.823  0.3142  0.3448  0.2389
24916SOL    HW176189   6.042   4.741   2.889 -0.8261 -1.4340  0.1817
24916SOL    HW276190   5.932   4.710   2.790 -0.2987  1.5231 -1.4561
24917SOL     OW76191   7.511   0.447   8.797 -0.7613  0.3270 -0.4986
24917SOL    HW176192   7.527   0.502   8.874 -0.3393  2.7407 -2.1838
24917SOL    HW276193   7.498   0.510   8.725 -1.2625 -1.8025 -2.3912
24918SOL     OW76194   1.731   2.429   7.327  0.1966 -0.1945  0.3191
24918SOL    HW176195   1.774   2.416   7.243  0.2377 -1.2053  0.4813
24918SOL    HW276196   1.793   2.393   7.391  0.5313  1.2887  0.8793
24919SOL     OW76197   4.666   4.742   0.415  0.6698 -0.2453 -0.3792
24919SOL    HW176198   4.736   4.745   0.350  0.2222 -1.0946 -0.9070
24919SOL    HW276199   4.598   4.799   0.380  1.8459  2.3004  1.1031
24920SOL     OW76200   6.896   0.276   8.354  0.0621  0.3841  0.2634
24920SOL    HW176201   6.813   0.297   8.398 -0.9617 -3.9164  0.7917
24920SOL    HW276202   6.869   0.249   8.266  0.9498 -0.7559  0.3346
24921SOL     OW76203   1.579   0.650   7.612  0.4947 -0.5282  0.4185
24921SOL    HW176204   1.576   0.683   7.701  0.4545 -0.6490  0.4622
24921SOL    HW276205   1.488   0.646   7.584  0.4527 -1.1591  0.6215
24922SOL     OW76206   7.291   4.107   4.066 -0.6282 -0.5102 -0.3182
24922SOL    HW176207   7.294   4.163   4.143  0.5687 -1.5643  0.4496
24922SOL    HW276208   7.357   4.143   4.007  0.5551 -1.3810  0.4162
24923SOL     OW76209   4.002   6.974   9.255 -0.1135  0.0064 -0.5087
24923SOL    HW176210   3.987   7.068   9.246 -0.8397 -0.2273 -1.9610
24923SOL    HW276211   3.916   6.934   9.240  0.4903 -0.9604 -1.6048
24924SOL     OW76212   1.995   5.594  10.963 -0.2886 -0.0600  0.4808
24924SOL    HW176213   2.063   5.554  10.909  1.3734  0.6751  1.8984
24924SOL    HW276214   2.005   5.553  11.049 -2.3695 -0.6762  0.4839
24925SOL     OW76215   7.621   0.718  11.798  0.6352  0.6409 -0.5403
24925SOL    HW176216   7.649   0.785  11.862  1.9715 -0.1478 -0.2550
24925SOL    HW276217   7.701   0.669  11.779  0.2051  0.6329 -2.5932
24926SOL     OW76218   6.067   1.929   5.748  0.1184 -0.3417  0.1391
24926SOL    HW176219   5.996   1.956   5.691  0.0073  1.3634  1.0175
24926SOL    HW276220   6.048   1.971   5.832  0.4453 -2.5112  1.3708
24927SOL     OW76221   5.102   2.535   9.503  0.4441 -0.1947  0.4234
24927SOL    HW176222   5.182   2.582   9.525 -0.3957  0.1762  2.9995
24927SOL    HW276223   5.077   2.570   9.417  1.4547  1.8717  0.8966
24928SOL     OW76224   2.300   0.849   9.510  0.0545 -0.3174 -0.1555
24928SOL    HW176225   2.279   0.756   9.510  0.4061 -0.4183 -1.6078
24928SOL    HW276226   2.237   0.888   9.448  0.2523  0.3277  0.0372
24929SOL     OW76227   7.528   4.837   3.786  0.0790 -0.3212  1.0890
24929SOL    HW176228   7.532   4.906   3.851  1.2232 -1.2424  2.0360
24929SOL    HW276229   7.485   4.764   3.830 -0.5835 -0.4318  0.2917
24930SOL     OW76230   4.976   2.084   7.300 -0.1583 -0.0322 -0.2521
24930SOL    HW176231   4.975   2.072   7.395 -0.4907 -1.7433 -0.4318
24930SOL    HW276232   4.891   2.122   7.279  0.3139  1.3228  0.2206
24931SOL     OW76233   0.045   6.378   0.544  0.1693  0.5600 -0.1548
24931SOL    HW176234   0.125   6.417   0.579 -0.5564  0.7718  1.3744
24931SOL    HW276235  -0.016   6.450   0.536  0.6082  0.7310 -3.0466
24932SOL     OW76236   3.008   4.720   8.722  0.1931 -1.2065 -0.0187
24932SOL    HW176237   3.077   4.689   8.663  2.1962  2.0309  0.4027
24932SOL    HW276238   3.054   4.770   8.789 -2.4302 -0.9093  1.7165
24933SOL     OW76239   2.249   6.238   0.438  0.1563  0.1215 -0.3850
24933SOL    HW176240   2.165   6.197   0.457  0.5839 -0.3159  0.5990
24933SOL    HW276241   2.272   6.207   0.350 -0.0008 -0.9423 -0.0583
24934SOL     OW76242   0.836   3.471  12.230 -0.3963 -0.5373 -0.0391
24934SOL    HW176243   0.777   3.436  12.297 -0.7069 -1.2979 -0.6816
24934SOL    HW276244   0.858   3.395  12.176 -0.3350  0.0972 -0.9273
24935SOL     OW76245   3.743   1.921   8.801  0.1238  0.1089  0.1270
24935SOL    HW176246   3.734   1.965   8.717 -0.3636  0.6316  0.4443
24935SOL    HW276247   3.654   1.893   8.823  0.0012  1.1903  1.1091
24936SOL     OW76248   2.064   7.296  10.386  0.3300 -0.2836  0.3874
24936SOL    HW176249   2.151   7.296  10.348 -0.0518 -1.2087 -0.5513
24936SOL    HW276250   2.023   7.377  10.355  0.8793  0.2001  0.9121
24937SOL     OW76251   3.548   1.163  10.530 -0.3753  0.5034 -0.1955
24937SOL    HW176252   3.611   1.145  10.461  0.4173  2.2469  0.0245
24937SOL    HW276253   3.485   1.223  10.491 -0.9509  0.0828  0.0712
24938SOL     OW76254   5.461   4.991   6.877  0.2240 -0.1520 -0.6831
24938SOL    HW176255   5.427   5.025   6.794  0.0958  1.5420  0.0155
24938SOL    HW276256   5.428   5.052   6.943  1.3656 -0.7314  0.4667
24939SOL     OW76257   5.993   2.699   1.907 -0.1433 -0.4719  0.3329
24939SOL    HW176258   5.981   2.677   1.999  0.0264 -0.3823  0.3780
24939SOL    HW276259   6.087   2.690   1.893 -0.4863 -3.4522 -0.5955
24940SOL     OW76260   0.137   7.074   7.834  0.0605  0.0913 -0.4053
24940SOL    HW176261   0.056   7.118   7.861 -0.3268 -0.6426 -0.3586
24940SOL    HW276262   0.127   7.062   7.739 -0.0295 -0.2748 -0.3526
24941SOL     OW76263   2.741   7.286  10.839 -0.0285  0.3230  0.1713
24941SOL    HW176264   2.673   7.318  10.779 -3.3508 -1.2215  2.7655
24941SOL    HW276265   2.749   7.193  10.818  1.2705  0.4574 -0.0149
24942SOL     OW76266   2.046   2.197   3.321 -0.1050 -0.1985  0.4026
24942SOL    HW176267   1.993   2.199   3.400 -0.2846  1.6115  0.2966
24942SOL    HW276268   2.122   2.143   3.343 -1.4648 -2.0120  0.8759
24943SOL     OW76269   6.299   7.593  10.141  0.1844  0.1192  0.2118
24943SOL    HW176270   6.270   7.670  10.093 -0.3189 -0.7257 -0.8920
24943SOL    HW276271   6.234   7.526  10.121  1.3278 -0.9870  0.0118
24944SOL     OW76272   0.564   3.520   3.253  0.0611  0.4300  0.6487
24944SOL    HW176273   0.565   3.601   3.202 -1.2090 -0.1738 -0.4087
24944SOL    HW276274   0.476   3.483   3.238  0.3538 -0.7709  1.6907
24945SOL     OW76275   2.658   5.373   9.458  0.0380 -0.5657  0.0950
24945SOL    HW176276   2.662   5.277   9.453 -0.3354 -0.5926  0.3046
24945SOL    HW276277   2.739   5.397   9.503  0.2754 -0.7622 -0.2243
24946SOL     OW76278   2.616   2.836   2.728  0.4618  0.2819 -0.2169
24946SOL    HW176279   2.673   2.903   2.691 -0.8718  3.1146  2.3501
24946SOL    HW276280   2.536   2.842   2.676 -0.1021  1.6668  0.7483
24947SOL     OW76281   5.632   5.703   2.485  0.6401  0.4627 -0.5260
24947SOL    HW176282   5.682   5.633   2.442  1.4338  0.2318  0.7337
24947SOL    HW276283   5.610   5.667   2.571  0.3052  1.4430 -0.1939
24948SOL     OW76284   7.944   0.695   2.296  0.0615  0.2297 -0.2291
24948SOL    HW176285   7.865   0.645   2.317  1.9040 -2.1189  1.8571
24948SOL    HW276286   7.971   0.732   2.380  2.2336 -0.7839 -0.4273
24949SOL     OW76287   2.513   0.692  10.116 -0.3682  0.0162  0.6654
24949SOL    HW176288   2.570   0.762  10.149 -0.3294  0.4551 -0.2829
24949SOL    HW276289   2.545   0.612  10.158  1.5323  0.1088 -0.5254
24950SOL     OW76290   0.067   2.013   5.239 -0.3709 -0.3034  0.0379
24950SOL    HW176291   0.128   1.997   5.311  0.0003 -1.1683 -0.4557
24950SOL    HW276292   0.094   2.097   5.203  0.1830 -0.4214  0.1695
24951SOL     OW76293   6.287   7.410   3.799  0.0683  0.5600 -0.4122
24951SOL    HW176294   6.260   7.328   3.758  0.0809  0.6080 -0.5157
24951SOL    HW276295   6.381   7.415   3.783  0.4801 -0.4372  1.3795
24952SOL     OW76296   1.481   1.247   8.853 -0.0013 -0.7170  0.2290
24952SOL    HW176297   1.493   1.326   8.801  0.1695 -0.5079  0.5789
24952SOL    HW276298   1.422   1.275   8.924 -1.1711 -1.2813 -0.4879
24953SOL     OW76299   5.364   7.078  12.067 -0.0005  0.1206 -0.2129
24953SOL    HW176300   5.366   7.174  12.068  0.2265  0.1172  0.8865
24953SOL    HW276301   5.453   7.053  12.094 -0.4709 -0.3819  0.9263
24954SOL     OW76302   5.815   6.189   9.346  0.1774 -0.1992  0.2845
24954SOL    HW176303   5.848   6.279   9.337  0.6039 -0.4790 -1.2441
24954SOL    HW276304   5.857   6.141   9.275 -1.6218 -1.1458 -0.2005
24955SOL     OW76305   6.476   4.045   1.724  0.1875 -0.0273 -0.0051
24955SOL    HW176306   6.426   4.014   1.648  1.2090 -1.2956 -0.2054
24955SOL    HW276307   6.452   3.986   1.795 -0.1528  0.6488  0.4437
24956SOL     OW76308   4.599   1.975   9.463  0.2421  0.3339  0.1261
24956SOL    HW176309   4.660   2.023   9.519 -0.5137 -0.1779  1.4302
24956SOL    HW276310   4.519   2.026   9.464 -0.5635 -0.8793  1.5152
24957SOL     OW76311   0.244   3.985   8.322  0.1880 -0.1887 -0.3582
24957SOL    HW176312   0.311   4.042   8.283  0.0271  0.2015 -0.0734
24957SOL    HW276313   0.205   3.940   8.247  1.4620 -1.2004 -0.4431
24958SOL     OW76314   5.087   7.587   5.310  0.1063  0.2026  0.1123
24958SOL    HW176315   5.031   7.566   5.384  0.4961  1.8106  0.9054
24958SOL    HW276316   5.156   7.520   5.312 -0.1502 -0.0456  0.8896
24959SOL     OW76317   0.381   2.212   1.506 -0.0788  0.2261 -0.0529
24959SOL    HW176318   0.371   2.131   1.556 -0.0532 -0.3975 -1.0276
24959SOL    HW276319   0.301   2.218   1.454  0.1181  0.5929 -0.3162
24960SOL     OW76320   5.228   7.013   7.762  0.4353  0.2997 -0.4917
24960SOL    HW176321   5.187   7.081   7.708  0.7784 -0.3088 -1.5610
24960SOL    HW276322   5.241   7.054   7.847 -1.4068  0.8456 -0.4425
24961SOL     OW76323   2.975   5.128   3.051 -0.0123 -0.3981  0.4505
24961SOL    HW176324   2.955   5.215   3.016  0.3649 -1.0223 -1.4636
24961SOL    HW276325   3.068   5.132   3.073  0.0803 -0.3995  0.0677
24962SOL     OW76326   0.159   6.269   4.751 -0.2514  0.1132  0.5594
24962SOL    HW176327   0.132   6.357   4.723 -1.9356 -0.4469  0.3502
24962SOL    HW276328   0.177   6.222   4.670  1.8151  0.5557  0.6897
24963SOL     OW76329   1.182   3.567  12.043  0.4647  0.2134  0.3114
24963SOL    HW176330   1.167   3.490  11.988  1.7127  0.0286  0.1993
24963SOL    HW276331   1.181   3.534  12.132 -1.8185  0.5544  0.4733
24964SOL     OW76332   0.439   0.693  11.504  0.1743  0.1998 -0.1397
24964SOL    HW176333   0.390   0.635  11.563 -0.9769  0.6927 -0.5911
24964SOL    HW276334   0.468   0.765  11.560  2.4832 -1.2161  0.6600
24965SOL     OW76335   6.238   7.749  11.858 -0.1968  0.0840 -0.1597
24965SOL    HW176336   6.295   7.727  11.932 -1.2040 -1.1609  0.2836
24965SOL    HW276337   6.279   7.826  11.818  0.7071  0.4151  1.3216
24966SOL     OW76338   1.873   4.323   0.054 -0.2469  0.3711 -0.1745
24966SOL    HW176339   1.863   4.321   0.149 -1.0316  0.1142 -0.2512
24966SOL    HW276340   1.885   4.231   0.030 -1.2757  0.2922 -0.4317
24967SOL     OW76341   0.355   6.675   0.913 -0.3953  0.2449 -0.4363
24967SOL    HW176342   0.345   6.765   0.881  3.2766  1.0507  0.2157
24967SOL    HW276343   0.311   6.675   0.998  0.0110  1.6405 -0.1934
24968SOL     OW76344   4.361   1.232   7.923  0.0913 -1.0179 -0.1640
24968SOL    HW176345   4.423   1.298   7.953 -0.2196 -1.5698  1.8465
24968SOL    HW276346   4.390   1.210   7.834  2.3956 -0.7851  0.4619
24969SOL     OW76347   5.414   4.646   3.084 -0.5286  0.1221 -0.3120
24969SOL    HW176348   5.347   4.660   3.150 -1.6913 -0.5360 -1.3119
24969SOL    HW276349   5.396   4.711   3.017 -0.9517 -0.8358 -1.1596
24970SOL     OW76350   4.566   4.395   3.264 -0.2997 -0.0872 -0.1255
24970SOL    HW176351   4.620   4.426   3.337 -0.0256  0.7777 -0.6941
24970SOL    HW276352   4.616   4.323   3.226 -0.3177 -0.3630  0.3506
24971SOL     OW76353   0.001   1.323   5.336  0.0906  0.5405 -0.1531
24971SOL    HW176354  -0.094   1.312   5.337 -0.0116  1.1551 -1.3593
24971SOL    HW276355   0.025   1.333   5.429 -1.0028  0.3199  0.1674
24972SOL     OW76356   3.323   2.599   5.842  0.5165 -0.3621 -0.4282
24972SOL    HW176357   3.263   2.655   5.891  0.7109 -0.3402 -0.2123
24972SOL    HW276358   3.354   2.535   5.907  2.5992  1.0914  0.1133
24973SOL     OW76359   4.523   1.568   8.488  0.0395  0.2755 -0.3584
24973SOL    HW176360   4.545   1.475   8.494 -3.0150 -0.5953 -1.1648
24973SOL    HW276361   4.542   1.591   8.397 -0.9689 -0.1149 -0.6852
24974SOL     OW76362   6.964   1.438   9.777  0.0758 -0.1404 -0.1667
24974SOL    HW176363   6.917   1.442   9.693 -0.6649  1.0690  0.2792
24974SOL    HW276364   6.901   1.400   9.838  0.2173  0.0373  0.0920
24975SOL     OW76365   1.111   0.471   8.911  0.7612  0.0365  0.0016
24975SOL    HW176366   1.084   0.418   8.986 -0.5932 -2.0420 -1.8182
24975SOL    HW276367   1.207   0.471   8.914  0.7609 -1.6413  0.6633
24976SOL     OW76368   4.712   5.689  10.520  0.1653 -0.3808  0.3085
24976SOL    HW176369   4.632   5.641  10.499  0.5334 -0.5763 -0.6979
24976SOL    HW276370   4.684   5.780  10.525 -0.5293 -0.6451  2.1776
24977SOL     OW76371   4.688   2.828   9.128  0.3618  0.3958 -0.5552
24977SOL    HW176372   4.729   2.914   9.139 -0.2698  0.7762 -1.1109
24977SOL    HW276373   4.747   2.781   9.070  0.4900  0.6083 -0.6002
24978SOL     OW76374   2.608   7.294   0.894 -0.5546  0.3918  0.1628
24978SOL    HW176375   2.690   7.287   0.942 -0.3034  0.8945 -0.1830
24978SOL    HW276376   2.604   7.385   0.866 -0.1576 -0.1138 -1.6881
24979SOL     OW76377   3.298   7.264   4.742  0.5676 -0.5702  0.6007
24979SOL    HW176378   3.321   7.262   4.834 -0.5181 -1.8057  0.8710
24979SOL    HW276379   3.264   7.177   4.723 -2.2169  0.5677 -0.1621
24980SOL     OW76380   2.308   3.754   4.333 -0.1962 -0.3796 -0.0416
24980SOL    HW176381   2.271   3.671   4.303 -1.0211 -0.3522  0.8561
24980SOL    HW276382   2.356   3.733   4.413  0.4401 -0.1494 -0.3518
24981SOL     OW76383   1.677   5.531  10.732 -0.3321 -0.2618 -0.1423
24981SOL    HW176384   1.747   5.473  10.703 -0.0799  0.1541 -0.3590
24981SOL    HW276385   1.633   5.481  10.802 -0.4998 -0.9631 -0.7367
24982SOL     OW76386   5.203   5.941   1.723  0.4821  0.2304  0.2147
24982SOL    HW176387   5.195   6.036   1.730  0.2630  0.1401  1.4395
24982SOL    HW276388   5.149   5.917   1.648  0.5604  1.0720 -0.1170
24983SOL     OW76389   0.622   3.136   5.721  0.6391 -0.2960  0.0442
24983SOL    HW176390   0.592   3.054   5.681  0.4745  0.1452 -0.7633
24983SOL    HW276391   0.564   3.203   5.684  0.4357  0.1324  1.0890
24984SOL     OW76392   7.608   1.288  10.113 -0.2130  0.3742  0.1590
24984SOL    HW176393   7.597   1.195  10.134 -1.5380  0.7414  1.2034
24984SOL    HW276394   7.557   1.301  10.034  1.2377 -0.0891 -0.8903
24985SOL     OW76395   2.237   7.359   1.495 -0.1084 -0.2388  0.3687
24985SOL    HW176396   2.269   7.327   1.410 -0.0037  1.9939 -0.5030
24985SOL    HW276397   2.298   7.429   1.518 -2.3960  1.9417  0.2593
24986SOL     OW76398   7.508   7.443   6.690  0.2362  0.3751  0.4264
24986SOL    HW176399   7.566   7.518   6.705  0.5805  0.0090  0.9643
24986SOL    HW276400   7.545   7.399   6.613  0.6014  0.2206  0.6854
24987SOL     OW76401   6.704   3.413   2.061 -0.7029 -0.4335 -0.0070
24987SOL    HW176402   6.650   3.345   2.022 -0.0818 -0.2959 -1.1296
24987SOL    HW276403   6.690   3.490   2.005  0.0153 -0.1610  0.1772
24988SOL     OW76404   0.929   5.386   3.293 -0.4868 -0.2397  0.2976
24988SOL    HW176405   1.017   5.410   3.263 -0.6452  2.3542  1.6766
24988SOL    HW276406   0.945   5.322   3.363  0.2983  0.0406  0.3905
24989SOL     OW76407   6.370   7.874  10.568 -0.2225 -0.1730 -0.8314
24989SOL    HW176408   6.376   7.938  10.639 -0.2501 -0.4574 -0.5712
24989SOL    HW276409   6.411   7.795  10.604 -1.5290 -0.7746 -0.6120
24990SOL     OW76410   2.868   7.842  11.154 -0.3242 -0.1901 -0.1415
24990SOL    HW176411   2.847   7.869  11.064 -0.4667  0.9488  0.2085
24990SOL    HW276412   2.783   7.839  11.198 -0.1899 -0.0513  0.1281
24991SOL     OW76413   1.139   5.993   9.227 -1.0935  0.0522 -0.0136
24991SOL    HW176414   1.080   5.991   9.303 -1.5120  0.1727 -0.3306
24991SOL    HW276415   1.082   6.014   9.153 -0.8957 -1.2830 -0.5634
24992SOL     OW76416   1.304   1.543   9.271 -0.0030  0.2464  0.0466
24992SOL    HW176417   1.213   1.566   9.292  0.1618 -0.5329  1.8005
24992SOL    HW276418   1.305   1.447   9.273  0.4320  0.1593 -2.0446
24993SOL     OW76419   7.544   4.375   4.500  0.5989  0.6358  0.2821
24993SOL    HW176420   7.578   4.358   4.588 -2.7226  1.2798  1.8225
24993SOL    HW276421   7.548   4.470   4.490  0.0056  0.6489  0.1538
24994SOL     OW76422   7.150   3.770   3.456  0.2357 -0.6483  0.1019
24994SOL    HW176423   7.208   3.704   3.417  1.5284  0.9340 -0.7525
24994SOL    HW276424   7.114   3.817   3.382 -0.2596 -0.0531  0.7138
24995SOL     OW76425   7.816   1.303   2.813 -0.2248  0.0200 -0.5596
24995SOL    HW176426   7.846   1.392   2.798  1.0346 -0.0933  1.0227
24995SOL    HW276427   7.851   1.253   2.740 -0.1259  0.6512 -0.9452
24996SOL     OW76428   4.876   1.301   2.865 -0.1269  0.1252 -0.2665
24996SOL    HW176429   4.785   1.306   2.838 -0.4972 -2.1006  0.4054
24996SOL    HW276430   4.879   1.344   2.950 -0.4596  0.4593 -0.4201
24997SOL     OW76431   5.447   2.485   3.730 -0.0784  0.0805  0.3094
24997SOL    HW176432   5.495   2.402   3.724  0.7888  0.5769  0.2418
24997SOL    HW276433   5.410   2.497   3.642 -1.3691 -0.9105  0.7008
24998SOL     OW76434   6.016   7.843   2.987 -0.2410  0.3515  0.6525
24998SOL    HW176435   6.009   7.791   3.067  0.7203 -1.4351 -0.3611
24998SOL    HW276436   5.943   7.813   2.932  0.4174 -0.0874 -0.0073
24999SOL     OW76437   7.046   1.705   9.896 -0.0296  0.4486  0.5230
24999SOL    HW176438   7.134   1.673   9.876  0.3634  1.4864  0.4984
24999SOL    HW276439   6.987   1.634   9.869  0.6580  0.5992 -1.5311
25000SOL     OW76440   2.737   3.044   1.905  0.1183  0.1501  0.1108
25000SOL    HW176441   2.713   3.036   1.812  0.1548  2.0995 -0.1088
25000SOL    HW276442   2.803   3.113   1.907  1.5774 -1.2231  1.3950
25001SOL     OW76443   4.712   0.826  10.147  0.0242  0.0534  0.2250
25001SOL    HW176444   4.694   0.898  10.086  1.5405  0.4601  0.1981
25001SOL    HW276445   4.798   0.793  10.120 -0.4111 -1.4402  0.5748
25002SOL     OW76446   0.274   4.507   2.724 -0.2883  0.8015  0.0985
25002SOL    HW176447   0.298   4.494   2.632 -1.2729 -0.5955  0.0002
25002SOL    HW276448   0.318   4.435   2.770 -2.1752 -0.3321  0.2499
25003SOL     OW76449   4.157   5.525   8.106  0.1376 -0.3237  0.0415
25003SOL    HW176450   4.250   5.537   8.086 -0.4016  3.5419 -0.9659
25003SOL    HW276451   4.115   5.516   8.020 -0.5688 -1.0072  0.4375
25004SOL     OW76452   4.406   0.817   4.790  0.3422  0.1419 -0.3924
25004SOL    HW176453   4.434   0.896   4.743  2.0334 -0.5732 -0.6901
25004SOL    HW276454   4.381   0.756   4.720 -0.3781  0.2019 -0.1919
25005SOL     OW76455   7.008   1.180   9.505  0.5230 -0.3461  0.1339
25005SOL    HW176456   6.959   1.261   9.499 -0.3181 -0.8330  0.2906
25005SOL    HW276457   6.949   1.118   9.547  0.8991 -1.2317 -0.5854
25006SOL     OW76458   4.430   4.014   5.532 -0.6154  0.3687 -0.3939
25006SOL    HW176459   4.515   4.045   5.564 -0.2757 -0.7506 -0.1652
25006SOL    HW276460   4.367   4.073   5.574 -0.0294  0.3795  0.5232
25007SOL     OW76461   2.935   7.050   4.749  0.0839 -0.4425 -0.0470
25007SOL    HW176462   2.969   7.135   4.778  0.2062 -1.1464  2.0383
25007SOL    HW276463   2.843   7.067   4.729 -0.1417  0.0070  1.2684
25008SOL     OW76464   3.463   6.515   7.576 -0.0313 -0.4783 -0.1974
25008SOL    HW176465   3.414   6.442   7.613 -1.1199  0.0033 -0.6297
25008SOL    HW276466   3.455   6.585   7.641  0.0387 -0.3815 -0.2918
25009SOL     OW76467   6.115   1.425  10.404  0.2559 -0.4445  0.7679
25009SOL    HW176468   6.153   1.508  10.432 -1.4088  0.3554  0.8134
25009SOL    HW276469   6.153   1.409  10.317  0.4870  0.4407  0.6977
25010SOL     OW76470   7.386   2.934   1.423  0.1061 -0.2502  0.0439
25010SOL    HW176471   7.338   3.000   1.374  1.4864  0.8304  0.0693
25010SOL    HW276472   7.319   2.886   1.472 -0.9300  1.2128  0.1234
25011SOL     OW76473   7.943   6.347   2.038  0.4163 -0.0270  0.3024
25011SOL    HW176474   7.987   6.262   2.043  1.7400  0.5866 -0.3154
25011SOL    HW276475   7.987   6.400   2.104  0.2686  0.4636  0.0081
25012SOL     OW76476   0.131   0.171  11.785  0.1258 -0.1649  0.3829
25012SOL    HW176477   0.181   0.100  11.826  1.3745  0.0924 -0.6327
25012SOL    HW276478   0.045   0.168  11.828  0.1218 -2.3350  0.3227
25013SOL     OW76479   2.764   6.520   3.548 -0.0271  0.4287 -0.4116
25013SOL    HW176480   2.770   6.436   3.593  0.5799 -0.6663 -2.3990
25013SOL    HW276481   2.779   6.586   3.616  0.2818 -1.0955  1.0441
25014SOL     OW76482   3.738   1.690   7.639  0.0354 -0.7278  0.1666
25014SOL    HW176483   3.733   1.708   7.733  0.9291  0.3255  0.0334
25014SOL    HW276484   3.662   1.635   7.621  0.3637 -1.7351  1.6736
25015SOL     OW76485   1.654   7.124   3.831 -0.1894  0.4293  0.2055
25015SOL    HW176486   1.621   7.038   3.805  1.2238  0.4208 -1.7285
25015SOL    HW276487   1.576   7.173   3.858 -1.4260 -0.4962 -1.5160
25016SOL     OW76488   0.141   1.288   9.796  0.1299  0.3144 -0.3558
25016SOL    HW176489   0.146   1.228   9.871  2.1895 -0.6491 -1.2023
25016SOL    HW276490   0.152   1.232   9.719 -0.0580  1.5296 -1.2901
25017SOL     OW76491   0.814   3.579  11.777 -0.1349  0.1745 -0.3657
25017SOL    HW176492   0.781   3.504  11.826 -1.3179  1.0908  0.2674
25017SOL    HW276493   0.750   3.592  11.706 -0.2240  0.9027 -0.1609
25018SOL     OW76494   5.704   3.494  10.288 -0.3300  0.5119 -0.3193
25018SOL    HW176495   5.692   3.461  10.199 -0.3794  1.3381 -0.6306
25018SOL    HW276496   5.790   3.537  10.287  1.1310 -2.1337  0.8899
25019SOL     OW76497   3.910   3.754   4.636 -0.1323 -0.4897  0.5356
25019SOL    HW176498   3.865   3.745   4.552 -0.9381 -1.5335  1.0509
25019SOL    HW276499   3.913   3.848   4.652 -2.1483 -0.3547  0.4443
25020SOL     OW76500   5.994   7.818   4.326  0.5507  0.3137  0.2388
25020SOL    HW176501   5.925   7.885   4.327  0.2946  0.0740 -0.6421
25020SOL    HW276502   5.966   7.756   4.258  1.6490  0.2265 -0.1440
25021SOL     OW76503   0.630   0.262   3.487  0.0666  0.2823  0.1401
25021SOL    HW176504   0.545   0.220   3.500 -0.2524  0.4675 -1.2141
25021SOL    HW276505   0.611   0.356   3.484  0.1483  0.2691 -1.2463
25022SOL     OW76506   3.962   4.340   9.881 -0.0786  0.1207 -0.1640
25022SOL    HW176507   3.876   4.368   9.849  0.4503 -0.9193 -2.7824
25022SOL    HW276508   3.970   4.249   9.852  1.9227  0.2209 -0.0823
25023SOL     OW76509   0.650   1.165   2.280  0.2063  0.5183 -0.8361
25023SOL    HW176510   0.597   1.237   2.245 -1.6042 -0.0248  0.6480
25023SOL    HW276511   0.605   1.086   2.252 -1.9830  0.0350  3.3226
25024SOL     OW76512   5.824   2.282   9.752 -0.2022 -0.0162  0.7071
25024SOL    HW176513   5.908   2.267   9.797 -0.4212 -0.1404  1.0811
25024SOL    HW276514   5.760   2.286   9.823 -0.6107 -0.6083  0.3782
25025SOL     OW76515   4.468   1.534   0.761  0.6398  0.0581  0.3758
25025SOL    HW176516   4.425   1.616   0.786 -0.1167 -0.1479 -0.2414
25025SOL    HW276517   4.507   1.553   0.675  2.1485  0.3709  1.1013
25026SOL     OW76518   1.067   4.476   7.679 -0.2457 -0.0964 -0.1327
25026SOL    HW176519   1.160   4.478   7.654  0.0632  0.3002  0.9866
25026SOL    HW276520   1.056   4.554   7.733 -0.6522 -1.3539  1.6818
25027SOL     OW76521   3.065   6.945   1.125 -0.4369  0.9811 -0.2763
25027SOL    HW176522   3.085   7.035   1.101  0.5533  0.5486 -1.1260
25027SOL    HW276523   3.147   6.909   1.159 -0.3698 -0.0579 -1.4306
25028SOL     OW76524   1.240   1.194   4.697  0.2939 -0.1272  0.1283
25028SOL    HW176525   1.331   1.210   4.675 -0.3599  1.1709 -1.9007
25028SOL    HW276526   1.237   1.197   4.793  2.1236  1.2468  0.1820
25029SOL     OW76527   3.458   0.214   5.701  0.0150  0.0944 -0.0974
25029SOL    HW176528   3.538   0.171   5.671 -0.8146 -1.3097 -0.3670
25029SOL    HW276529   3.428   0.263   5.625 -0.4817 -1.0590 -0.6717
25030SOL     OW76530   1.878   2.439   6.528  0.3234  0.1597 -0.4936
25030SOL    HW176531   1.945   2.492   6.484 -0.0382 -1.3059 -2.9615
25030SOL    HW276532   1.822   2.504   6.572  1.6574  1.5988 -0.8302
25031SOL     OW76533   0.371   7.557  11.769 -0.0000  0.2800  0.1105
25031SOL    HW176534   0.284   7.539  11.732  0.1950 -0.5986  0.0685
25031SOL    HW276535   0.366   7.523  11.858  0.5051 -0.3645 -0.1026
25032SOL     OW76536   6.137   5.147  10.504 -0.2450 -0.2169 -0.5347
25032SOL    HW176537   6.139   5.221  10.563 -3.0743  1.2062 -2.0086
25032SOL    HW276538   6.213   5.094  10.528  0.0991  1.5084  2.6496
25033SOL     OW76539   0.491   7.037  11.968 -1.0501 -0.3724  0.6745
25033SOL    HW176540   0.510   6.998  11.882 -2.1103  1.1635 -0.3120
25033SOL    HW276541   0.437   6.972  12.012 -2.1063 -0.4261 -0.6135
25034SOL     OW76542   3.143   6.109  11.802 -0.6643 -0.0739  0.4045
25034SOL    HW176543   3.125   6.015  11.790  2.5286 -0.7422  0.0773
25034SOL    HW276544   3.111   6.149  11.721  2.5075 -1.7361 -1.9254
25035SOL     OW76545   7.475   7.154  11.533 -0.2198 -0.0466  0.3889
25035SOL    HW176546   7.472   7.221  11.601  1.3555  0.7546 -0.2767
25035SOL    HW276547   7.393   7.165  11.485  0.2568  1.8038 -0.0544
25036SOL     OW76548   6.365   1.381   1.032  0.7033  0.3762  0.4171
25036SOL    HW176549   6.432   1.448   1.018  0.9437 -0.3655 -2.7508
25036SOL    HW276550   6.291   1.410   0.979  0.2507 -1.0549  0.2262
25037SOL     OW76551   2.286   6.272   9.092  0.0477  0.3613 -0.2915
25037SOL    HW176552   2.203   6.258   9.047 -1.3450  0.5489  2.0667
25037SOL    HW276553   2.291   6.367   9.104  1.5658  0.5649 -2.0021
25038SOL     OW76554   4.816   4.320   4.238 -0.3847  0.3807  0.3848
25038SOL    HW176555   4.799   4.412   4.258 -0.0611  0.6253 -0.4308
25038SOL    HW276556   4.736   4.275   4.266 -0.4047  0.8502  1.1314
25039SOL     OW76557   3.827   2.475   8.607 -0.3592  0.1522  0.0362
25039SOL    HW176558   3.743   2.429   8.617 -0.4297  0.1566 -0.5469
25039SOL    HW276559   3.845   2.509   8.695 -0.6868 -0.3352  0.3000
25040SOL     OW76560   4.680   1.637   7.451 -0.1784  0.1857 -0.2189
25040SOL    HW176561   4.767   1.676   7.452 -0.6171  1.2181 -0.5278
25040SOL    HW276562   4.630   1.690   7.514 -1.2038  1.1512 -1.7773
25041SOL     OW76563   1.833   5.433   0.857  0.3435 -0.3261  0.5392
25041SOL    HW176564   1.752   5.431   0.909  0.1672 -0.9018  0.2515
25041SOL    HW276565   1.829   5.516   0.810  0.6196  0.3161  1.6130
25042SOL     OW76566   3.278   0.624   3.215  0.1143 -0.2318  0.3841
25042SOL    HW176567   3.265   0.707   3.170  0.6850  0.4236  1.3902
25042SOL    HW276568   3.371   0.622   3.237  0.2203 -1.3784 -0.0560
25043SOL     OW76569   2.200   5.050   1.972  0.2111  0.6280  0.6355
25043SOL    HW176570   2.123   5.010   2.011 -0.2347 -0.4539 -1.1990
25043SOL    HW276571   2.181   5.143   1.969 -1.2865  0.3216 -0.2647
25044SOL     OW76572   7.314   6.271   7.129 -0.4181 -0.9631 -0.0202
25044SOL    HW176573   7.374   6.337   7.164 -0.2423 -0.7236 -0.7553
25044SOL    HW276574   7.346   6.188   7.164  0.7658 -0.9213 -0.9613
25045SOL     OW76575   4.897   6.776   6.641 -0.2987 -0.4744 -0.0872
25045SOL    HW176576   4.907   6.728   6.559  0.9608  0.2073 -0.3592
25045SOL    HW276577   4.833   6.725   6.691  2.0493 -3.3228  0.2844
25046SOL     OW76578   0.314   7.549   7.446  0.4922 -0.3932 -0.2003
25046SOL    HW176579   0.240   7.609   7.442  0.8230  0.1823  1.5708
25046SOL    HW276580   0.315   7.518   7.536  2.4333 -0.3589 -0.1663
25047SOL     OW76581   2.881   4.372   0.520 -0.8251  0.1594 -0.0175
25047SOL    HW176582   2.895   4.282   0.550  0.1398 -0.0666 -1.0670
25047SOL    HW276583   2.787   4.387   0.532 -0.9513 -0.8983  0.4105
25048SOL     OW76584   7.527   4.152   8.232  0.5950 -0.2857 -0.2265
25048SOL    HW176585   7.585   4.168   8.306 -0.3079 -1.1058  0.6790
25048SOL    HW276586   7.533   4.058   8.216 -0.1552 -0.3107 -0.4063
25049SOL     OW76587   0.452   2.433   3.574  1.0467  0.3249  0.2693
25049SOL    HW176588   0.533   2.421   3.526  1.7092 -1.3983  1.7303
25049SOL    HW276589   0.474   2.413   3.665 -0.5805  1.7110  1.0387
25050SOL     OW76590   5.686   6.891   0.124  0.3582  0.6990 -0.5115
25050SOL    HW176591   5.642   6.897   0.209 -0.2150  1.4440 -0.8411
25050SOL    HW276592   5.667   6.975   0.082 -0.2318 -0.0420 -1.7792
25051SOL     OW76593   7.066   5.828   4.437 -0.1394  0.1761 -0.2608
25051SOL    HW176594   7.016   5.909   4.439  1.6409  1.3405 -0.7143
25051SOL    HW276595   7.146   5.848   4.486  1.1113 -0.7436 -1.8539
25052SOL     OW76596   2.817   5.028   5.632  0.0774  0.5265  0.3633
25052SOL    HW176597   2.808   5.092   5.703  0.7106 -0.0396  0.9641
25052SOL    HW276598   2.899   5.052   5.589 -0.4956  1.1025 -0.4270
25053SOL     OW76599   5.700   6.510   9.510  0.2293 -0.1702 -0.1943
25053SOL    HW176600   5.681   6.422   9.541 -0.4211 -0.6817 -1.9110
25053SOL    HW276601   5.792   6.507   9.483  0.3180 -0.2044  0.1130
25054SOL     OW76602   7.933   1.186   2.176  0.0198  0.4015  0.0183
25054SOL    HW176603   7.951   1.128   2.250  0.1510 -1.1708 -1.1824
25054SOL    HW276604   8.012   1.179   2.121 -1.0905 -0.5709 -1.5531
25055SOL     OW76605   2.264   7.541   1.073 -0.2332 -0.1225  0.0050
25055SOL    HW176606   2.359   7.553   1.076 -0.2494 -0.0804  0.3018
25055SOL    HW276607   2.252   7.451   1.044 -0.1014 -0.2434  0.3267
25056SOL     OW76608   7.653   1.712   2.738  0.3146 -0.3768  0.2400
25056SOL    HW176609   7.738   1.668   2.743 -0.3180 -1.7941 -0.7584
25056SOL    HW276610   7.607   1.686   2.818  0.1955 -1.0282 -0.0306
25057SOL     OW76611   5.624   5.828   6.980 -0.0563 -0.3563 -0.2326
25057SOL    HW176612   5.656   5.838   6.891 -0.8734  0.5738 -0.4301
25057SOL    HW276613   5.622   5.733   6.994  0.4974 -0.4957 -1.0320
25058SOL     OW76614   3.902   6.387   5.223 -0.5821 -0.2170 -0.1603
25058SOL    HW176615   3.861   6.463   5.263 -1.5678 -1.8130  2.0659
25058SOL    HW276616   3.836   6.351   5.165 -1.0525 -0.7366  0.6751
25059SOL     OW76617   1.935   1.286   1.433 -0.1447 -0.2063  0.7250
25059SOL    HW176618   1.994   1.237   1.375  0.2561  1.4082 -0.2901
25059SOL    HW276619   1.993   1.338   1.488 -0.5320 -1.6196  2.5657
25060SOL     OW76620   5.094   2.651   6.677 -0.2956  0.4160  0.6134
25060SOL    HW176621   5.084   2.733   6.726 -1.4910  1.1090 -0.7397
25060SOL    HW276622   5.033   2.658   6.604  0.3244 -1.2529 -0.1254
25061SOL     OW76623   0.061   2.965  10.049 -0.9357  0.0352 -0.4128
25061SOL    HW176624   0.033   2.907  10.120 -0.7200 -1.8537 -1.7658
25061SOL    HW276625  -0.018   2.978   9.996 -1.2911  2.0950  0.5531
25062SOL     OW76626   7.589   1.697   8.298  0.2984 -0.2330 -0.3625
25062SOL    HW176627   7.496   1.719   8.291  0.2222 -0.5365 -0.3182
25062SOL    HW276628   7.591   1.602   8.306  0.4990 -0.0998  1.5767
25063SOL     OW76629   4.675   5.882   7.452  0.6679  0.3550  0.6019
25063SOL    HW176630   4.722   5.955   7.413 -0.5484  1.4170  1.0464
25063SOL    HW276631   4.703   5.881   7.544  1.3087 -0.2749  0.4052
25064SOL     OW76632   0.462   7.553   9.460 -0.1808  0.0952  0.2127
25064SOL    HW176633   0.493   7.633   9.417  0.1138 -0.9478 -1.6602
25064SOL    HW276634   0.524   7.538   9.530  0.5122  0.8246 -0.2231
25065SOL     OW76635   4.624   3.940   5.350  0.3738 -0.0656 -0.0020
25065SOL    HW176636   4.617   3.941   5.255  0.8521 -2.0817 -0.1092
25065SOL    HW276637   4.534   3.949   5.381  0.4282  3.2077 -0.5233
25066SOL     OW76638   4.716   7.861   5.699  0.2610 -0.7859 -0.1488
25066SOL    HW176639   4.733   7.872   5.606 -0.0562 -1.2443 -0.2649
25066SOL    HW276640   4.742   7.771   5.718  0.0002 -0.8054  0.1295
25067SOL     OW76641   7.381   4.028   4.946  0.2986  0.7427 -0.1911
25067SOL    HW176642   7.313   3.982   4.996 -0.5641  2.1151 -0.0294
25067SOL    HW276643   7.335   4.104   4.909  1.2720  0.5745 -1.8295
25068SOL     OW76644   7.195   7.825   3.081 -0.0398 -0.3408 -0.0779
25068SOL    HW176645   7.182   7.891   3.149 -2.0732 -0.6954 -0.0886
25068SOL    HW276646   7.151   7.861   3.004 -0.4541 -1.3459 -0.3180
25069SOL     OW76647   5.453   4.891  12.139 -0.1269  0.1503  0.4142
25069SOL    HW176648   5.441   4.797  12.137 -0.9226  0.2506  0.1997
25069SOL    HW276649   5.491   4.909  12.225 -0.7865 -0.2682  0.7937
25070SOL     OW76650   6.431   1.942   2.421 -0.2082 -0.1769  0.1596
25070SOL    HW176651   6.374   1.894   2.361 -1.6229  1.9808 -0.3113
25070SOL    HW276652   6.398   1.921   2.508  0.4843 -1.5880  0.1262
25071SOL     OW76653   0.837   7.966   8.357  0.4925  0.0845 -0.0334
25071SOL    HW176654   0.789   8.033   8.406  1.8544  1.5744 -0.6680
25071SOL    HW276655   0.880   7.913   8.425 -2.9186 -2.1567  0.6593
25072SOL     OW76656   7.640   2.981   1.501  0.0777  0.1349  1.0299
25072SOL    HW176657   7.684   2.912   1.452 -1.3771 -0.7538  0.9048
25072SOL    HW276658   7.547   2.964   1.486 -0.3247  1.4089  1.9925
25073SOL     OW76659   6.198   7.137   6.612 -0.1804 -0.4407 -0.0272
25073SOL    HW176660   6.236   7.136   6.525  2.9290  0.8166  1.1771
25073SOL    HW276661   6.111   7.174   6.600  0.7838  1.2817 -2.3894
25074SOL     OW76662   1.462   1.173   3.937 -0.4094  0.2457 -0.2717
25074SOL    HW176663   1.505   1.087   3.935 -1.2682 -0.2198  0.4902
25074SOL    HW276664   1.440   1.186   4.029 -2.5322  0.1256 -0.7104
25075SOL     OW76665   5.820   4.410   4.525 -0.0102 -0.4730  0.1681
25075SOL    HW176666   5.813   4.440   4.615  1.4672 -0.9817  0.4737
25075SOL    HW276667   5.731   4.419   4.490 -0.5496 -0.0282  1.5850
25076SOL     OW76668   0.169   5.662   3.016 -0.2189 -0.3064 -0.0978
25076SOL    HW176669   0.253   5.704   3.033  0.0319 -0.8854  0.1144
25076SOL    HW276670   0.189   5.568   3.015 -0.6273 -0.3971 -1.3026
25077SOL     OW76671   7.532   1.264   2.592  0.0997  0.1261 -0.0612
25077SOL    HW176672   7.532   1.359   2.584 -1.2399  0.2831  1.3375
25077SOL    HW276673   7.450   1.235   2.552  0.3010 -0.4074 -0.1074
25078SOL     OW76674   2.464   2.813   1.976 -0.2536  0.4421  0.0455
25078SOL    HW176675   2.481   2.897   1.933  0.7407  0.1523 -0.1591
25078SOL    HW276676   2.483   2.748   1.908 -2.2150  0.0597 -0.1970
25079SOL     OW76677   3.414   1.636   4.769 -0.4595 -0.1991 -0.5411
25079SOL    HW176678   3.352   1.647   4.842 -0.9073  1.4021 -1.1208
25079SOL    HW276679   3.457   1.553   4.787 -0.9687 -0.1199  1.2447
25080SOL     OW76680   0.220   0.740   7.472  0.0482 -0.2552 -0.1132
25080SOL    HW176681   0.254   0.781   7.392  0.4901 -1.0803 -0.3663
25080SOL    HW276682   0.184   0.813   7.523 -0.3416  0.2741 -1.1054
25081SOL     OW76683   5.688   3.452   1.897 -0.1134 -0.1706 -0.4537
25081SOL    HW176684   5.659   3.405   1.820 -1.5584 -0.7014  0.3710
25081SOL    HW276685   5.639   3.534   1.895 -1.1046 -0.7159  0.5228
25082SOL     OW76686   6.710   2.654   1.276  0.4560  0.0987  0.4475
25082SOL    HW176687   6.621   2.652   1.310  0.7999 -3.7858  1.5558
25082SOL    HW276688   6.765   2.670   1.353  0.8512  0.5325  0.0874
25083SOL     OW76689   3.818   7.098   1.920 -0.0925 -0.1281 -0.1606
25083SOL    HW176690   3.844   7.008   1.902  2.2327  0.1639  1.3477
25083SOL    HW276691   3.760   7.092   1.996  0.0351 -0.3594 -0.0806
25084SOL     OW76692   5.885   0.991  10.796  0.2075 -0.1084 -0.0248
25084SOL    HW176693   5.915   1.056  10.860  2.3249  1.2057 -2.1963
25084SOL    HW276694   5.838   1.041  10.730 -0.7560 -1.2310 -0.2187
25085SOL     OW76695   5.638   0.532   4.132 -0.1666  0.4685  0.1315
25085SOL    HW176696   5.718   0.512   4.180 -0.0804 -1.4220 -0.6717
25085SOL    HW276697   5.604   0.446   4.107 -2.1948  1.2503  0.0335
25086SOL     OW76698   1.053   6.396   3.742 -0.2676  0.1715  0.3334
25086SOL    HW176699   1.070   6.321   3.799 -0.8006 -0.8763 -0.8410
25086SOL    HW276700   1.139   6.435   3.727  0.1257 -0.6414  0.3887
25087SOL     OW76701   5.988   4.585  11.967 -0.0682 -0.0199  0.0822
25087SOL    HW176702   6.063   4.546  11.922  0.5355 -0.6839  1.5904
25087SOL    HW276703   5.941   4.632  11.898  1.7573  0.4636 -0.9095
25088SOL     OW76704   3.077   5.932   0.105 -0.0946  0.3676 -0.2662
25088SOL    HW176705   3.165   5.967   0.120 -0.0299 -0.3490  1.2720
25088SOL    HW276706   3.089   5.868   0.035  0.4134  1.0041 -0.7703
25089SOL     OW76707   4.487   7.754   6.785  0.5362  0.6122  0.3935
25089SOL    HW176708   4.460   7.697   6.713 -0.2277  0.8548  0.4785
25089SOL    HW276709   4.580   7.772   6.768  0.5935 -0.0567 -0.0319
25090SOL     OW76710   2.817   7.783   2.867 -0.6287  0.2768 -0.4325
25090SOL    HW176711   2.904   7.754   2.892  0.2590  0.8705 -2.5884
25090SOL    HW276712   2.788   7.839   2.939 -0.1678 -1.5909  1.2926
25091SOL     OW76713   6.218   0.320  10.777 -0.1896  0.4757  0.1209
25091SOL    HW176714   6.178   0.250  10.828 -0.1972  1.1355  1.0538
25091SOL    HW276715   6.150   0.349  10.717  0.2667 -1.2843 -1.3178
25092SOL     OW76716   4.623   7.563   2.951  0.7295  0.1289 -0.0589
25092SOL    HW176717   4.530   7.543   2.959  0.6944  0.7172  1.1263
25092SOL    HW276718   4.662   7.480   2.922 -0.1600 -0.0932 -0.6925
25093SOL     OW76719   6.818   2.266   5.865  0.0575 -0.0278  0.4720
25093SOL    HW176720   6.730   2.267   5.829 -0.1078  0.4812  0.8865
25093SOL    HW276721   6.867   2.329   5.812  0.2528 -0.5280  0.0504
25094SOL     OW76722   2.299   5.489   5.379 -0.1408  0.2820 -0.2051
25094SOL    HW176723   2.237   5.441   5.324 -1.0828  0.6311  0.5033
25094SOL    HW276724   2.245   5.556   5.423  0.3560 -0.5867  1.8795
25095SOL     OW76725   5.344   3.201  10.100 -0.3193  0.0983 -0.0540
25095SOL    HW176726   5.406   3.151  10.155  0.1780  1.5297  0.7494
25095SOL    HW276727   5.365   3.175  10.011 -0.4661 -1.5410  0.3518
25096SOL     OW76728   7.692   5.273   5.960 -0.0096 -0.3953 -0.2118
25096SOL    HW176729   7.774   5.303   5.921  1.3339 -1.3692  1.6711
25096SOL    HW276730   7.638   5.248   5.886  0.8559  1.5367 -1.5791
25097SOL     OW76731   4.443   2.041   3.207 -0.5682 -0.3847  0.0758
25097SOL    HW176732   4.489   2.110   3.254 -2.4642  0.9511  0.0666
25097SOL    HW276733   4.412   1.982   3.275 -0.5048 -0.2503  0.2207
25098SOL     OW76734   5.867   7.668   7.708  0.0434 -0.5942 -0.1821
25098SOL    HW176735   5.960   7.671   7.682 -0.0882 -1.1121 -0.7556
25098SOL    HW276736   5.840   7.759   7.710  0.6660 -0.4158  0.3499
25099SOL     OW76737   1.391   5.075   8.907  0.1652 -0.2056  0.6501
25099SOL    HW176738   1.297   5.062   8.920  0.0675 -0.2553 -0.0835
25099SOL    HW276739   1.423   5.106   8.992 -0.3604 -1.0088  1.1466
25100SOL     OW76740   2.576   0.335   2.203  0.4486  0.7171  0.3252
25100SOL    HW176741   2.519   0.394   2.155  0.3152  0.4218  0.1179
25100SOL    HW276742   2.644   0.310   2.140  1.5080  1.9999  0.9039
25101SOL     OW76743   5.113   6.099   2.115 -0.3697 -0.0873 -0.2586
25101SOL    HW176744   5.188   6.060   2.069 -0.0694 -1.1914  1.1232
25101SOL    HW276745   5.142   6.188   2.136  1.9998 -1.4649  3.2241
25102SOL     OW76746   7.623   5.854   1.900  0.1814 -0.5133  0.4873
25102SOL    HW176747   7.572   5.923   1.857  0.8227 -0.3105  0.0411
25102SOL    HW276748   7.672   5.812   1.829  0.2059 -1.0781  0.8303
25103SOL     OW76749   4.625   5.257   9.105 -0.0639 -0.3689 -0.0163
25103SOL    HW176750   4.654   5.284   9.192 -0.4035  1.0603 -0.3161
25103SOL    HW276751   4.538   5.220   9.119 -0.1799 -0.0058  0.2375
25104SOL     OW76752   6.030   2.161   6.452  0.2008  0.0340  0.1957
25104SOL    HW176753   6.014   2.068   6.471  1.0541 -0.0048  0.8117
25104SOL    HW276754   6.053   2.163   6.360 -1.4725 -0.1380 -0.2499
25105SOL     OW76755   1.562   6.893   6.590  0.4572 -0.5086  0.1728
25105SOL    HW176756   1.648   6.851   6.600  1.3077  0.7649 -1.3405
25105SOL    HW276757   1.563   6.964   6.655  0.8987  0.0115 -0.3917
25106SOL     OW76758   4.636   4.697   1.020  0.2672  0.4319 -0.3872
25106SOL    HW176759   4.700   4.758   1.056  1.4482 -1.2565  0.5331
25106SOL    HW276760   4.555   4.748   1.014  1.0418  1.9094  0.8949
25107SOL     OW76761   1.188   6.163   2.038 -0.6569  0.3865 -0.3063
25107SOL    HW176762   1.160   6.229   2.101 -1.1430  1.5510 -1.6808
25107SOL    HW276763   1.116   6.158   1.975 -0.5991 -1.4294 -0.2906
25108SOL     OW76764   7.117   7.702   8.333  0.0456 -0.4602  0.2590
25108SOL    HW176765   7.098   7.709   8.426  0.0598 -1.0932  0.3074
25108SOL    HW276766   7.098   7.611   8.310 -0.2371 -0.2411 -0.4164
25109SOL     OW76767   4.491   1.215   9.682  0.4842  0.0978  0.1583
25109SOL    HW176768   4.491   1.128   9.640  0.5314  0.1329  0.0849
25109SOL    HW276769   4.472   1.275   9.610 -0.5894  0.0595  0.3991
25110SOL     OW76770   0.147   6.712  12.154 -0.7799 -0.1912 -0.1197
25110SOL    HW176771   0.128   6.621  12.176  0.1022 -0.2331  0.5042
25110SOL    HW276772   0.061   6.749  12.132 -1.4941 -0.6040  1.7559
25111SOL     OW76773   0.527   1.221   5.008  0.5483  0.5321  0.2389
25111SOL    HW176774   0.458   1.284   5.029 -0.3236 -0.5211  0.6378
25111SOL    HW276775   0.549   1.239   4.917 -0.7620  0.4458 -0.1200
25112SOL     OW76776   4.612   0.419   2.564 -0.1639  0.0510  0.3587
25112SOL    HW176777   4.619   0.344   2.622 -1.8045  1.1119  2.0294
25112SOL    HW276778   4.558   0.388   2.491 -1.0020 -0.3606  1.1329
25113SOL     OW76779   4.236   6.559  12.193  0.2419  0.4363 -0.4916
25113SOL    HW176780   4.187   6.621  12.247  0.8415 -0.2325  0.8681
25113SOL    HW276781   4.321   6.599  12.181  0.5402  0.0279  0.1658
25114SOL     OW76782   2.847   0.284   2.507 -0.3050  0.3500  0.2842
25114SOL    HW176783   2.852   0.273   2.602 -0.4131 -1.0525  0.1505
25114SOL    HW276784   2.862   0.196   2.472 -1.0709  0.6906 -0.9665
25115SOL     OW76785   1.753   6.278   8.799  0.1347 -0.4185  0.0607
25115SOL    HW176786   1.808   6.354   8.777 -1.2826  1.1953  1.8172
25115SOL    HW276787   1.741   6.284   8.893 -2.7250 -0.9203 -0.2020
25116SOL     OW76788   4.052   0.936  10.266 -0.3689  0.8402 -0.1051
25116SOL    HW176789   3.977   0.916  10.322 -0.3090  1.7504  0.3217
25116SOL    HW276790   4.077   1.025  10.291  0.8335  0.5615 -0.2690
25117SOL     OW76791   1.269   7.694  11.361  0.5404 -0.0328  0.4591
25117SOL    HW176792   1.287   7.608  11.324  2.6116  0.1154  1.0135
25117SOL    HW276793   1.231   7.744  11.288  0.0525 -1.1508 -0.0789
25118SOL     OW76794   3.732   4.115   6.281 -0.5612  0.0002  0.2466
25118SOL    HW176795   3.664   4.113   6.214  0.7729 -0.0601 -1.1868
25118SOL    HW276796   3.801   4.169   6.242 -0.0647  0.6355  1.9304
25119SOL     OW76797   7.512   7.485   5.881 -0.0967 -0.0572  0.6363
25119SOL    HW176798   7.514   7.411   5.820 -2.1851 -0.2473  0.6936
25119SOL    HW276799   7.526   7.562   5.826  0.4999 -0.3947  0.3128
25120SOL     OW76800   1.921   4.708   7.507  0.2491  0.4661 -0.2946
25120SOL    HW176801   1.908   4.777   7.442 -0.1879 -0.0916 -0.8138
25120SOL    HW276802   2.010   4.723   7.540  0.7918  0.2951 -1.6028
25121SOL     OW76803   4.147   2.197   1.458  0.3655 -0.1356  0.7038
25121SOL    HW176804   4.219   2.261   1.452 -0.5282  0.9553  1.1921
25121SOL    HW276805   4.071   2.244   1.424 -0.4977 -0.6245  1.8961
25122SOL     OW76806   5.045   5.816   8.279  0.2797 -0.5224 -0.6209
25122SOL    HW176807   4.990   5.894   8.288 -2.0166 -1.9280 -1.6024
25122SOL    HW276808   5.052   5.802   8.185  1.5121 -0.9746 -0.4838
25123SOL     OW76809   3.176   7.873   4.998 -0.5644 -0.2595 -0.1882
25123SOL    HW176810   3.091   7.833   5.018 -0.5360 -0.8020 -1.1178
25123SOL    HW276811   3.212   7.896   5.083 -1.4522 -0.4312  0.2440
25124SOL     OW76812   4.137   2.318   1.003  0.0168  0.1008  0.3604
25124SOL    HW176813   4.108   2.358   0.921 -0.2739 -1.0837 -0.1326
25124SOL    HW276814   4.142   2.225   0.984 -0.9627 -0.3150  1.9495
25125SOL     OW76815   5.366   3.609  10.691 -0.0400  0.2210  0.3587
25125SOL    HW176816   5.290   3.557  10.666  1.2414 -0.7517 -1.7817
25125SOL    HW276817   5.440   3.565  10.649  1.5448  1.9179  1.2205
25126SOL     OW76818   0.702   5.976   6.557 -0.1431  0.1970  0.2385
25126SOL    HW176819   0.753   5.910   6.604 -1.3885  1.0283  3.0429
25126SOL    HW276820   0.752   6.057   6.567 -0.2551  0.3118 -0.1355
25127SOL     OW76821   4.777   3.788  11.901  0.2496  0.0214  0.0955
25127SOL    HW176822   4.859   3.781  11.949  0.9915  0.5304 -1.0462
25127SOL    HW276823   4.762   3.883  11.893 -0.1835 -0.0632 -0.1379
25128SOL     OW76824   5.062   5.662   3.843  0.1478  0.1124 -0.6837
25128SOL    HW176825   5.030   5.729   3.903 -1.9666 -0.1304 -1.4685
25128SOL    HW276826   5.048   5.579   3.890 -1.1462 -0.0485 -1.3100
25129SOL     OW76827   4.662   4.760   9.474 -0.0657 -0.1604 -0.7262
25129SOL    HW176828   4.569   4.752   9.497 -0.0585 -1.7554 -1.1900
25129SOL    HW276829   4.663   4.771   9.379  0.2261 -0.2014 -0.7289
25130SOL     OW76830   0.210   3.951   6.851 -0.1644  0.4344 -0.0130
25130SOL    HW176831   0.218   4.037   6.892 -0.0999 -0.1567  1.2363
25130SOL    HW276832   0.177   3.970   6.763  1.3916  1.8473 -0.3426
25131SOL     OW76833   4.456   6.370   2.041  0.4572  0.0676  0.6804
25131SOL    HW176834   4.446   6.300   1.977 -1.1844  0.0988  0.8707
25131SOL    HW276835   4.551   6.375   2.056  0.6129 -2.2495  0.8397
25132SOL     OW76836   5.105   3.805  10.394 -0.1436 -0.0824  0.2484
25132SOL    HW176837   5.125   3.712  10.402 -0.1315 -0.2291 -1.1603
25132SOL    HW276838   5.095   3.819  10.300  1.9449  1.7709  0.2300
25133SOL     OW76839   7.192   7.423   0.501  0.1849 -0.6741  0.3865
25133SOL    HW176840   7.126   7.414   0.570 -1.6761  0.9081 -1.0435
25133SOL    HW276841   7.186   7.515   0.475  1.7366 -0.9233 -1.0130
25134SOL     OW76842   7.187   1.549   1.927  0.0813  0.0459  0.0225
25134SOL    HW176843   7.117   1.557   1.992 -1.0590  1.3970 -1.3078
25134SOL    HW276844   7.164   1.470   1.878  1.3668 -1.4362  1.6453
25135SOL     OW76845   5.423   7.592   9.973  0.1068 -0.3621 -0.0567
25135SOL    HW176846   5.364   7.661  10.005  1.1121  0.4893  0.0369
25135SOL    HW276847   5.504   7.639   9.953  0.1691 -1.2118 -1.9221
25136SOL     OW76848   5.748   0.148   2.787 -0.2388 -0.3697  0.3464
25136SOL    HW176849   5.727   0.235   2.752  0.1230  0.4225  1.9927
25136SOL    HW276850   5.671   0.095   2.767  0.2662 -0.2242 -2.3137
25137SOL     OW76851   1.217   5.938   0.951  0.3162 -0.5503 -0.3371
25137SOL    HW176852   1.199   5.871   1.018  1.0951  0.6926  1.1736
25137SOL    HW276853   1.130   5.970   0.926  0.0160 -0.9645  0.1425
25138SOL     OW76854   1.277   5.419   8.402 -0.0410  0.0679  0.3317
25138SOL    HW176855   1.250   5.499   8.448  0.6392 -0.1343  1.1081
25138SOL    HW276856   1.293   5.447   8.312 -3.0854  0.1477 -0.2781
25139SOL     OW76857   1.835   4.099  10.711  0.2112 -0.3770  0.3097
25139SOL    HW176858   1.846   4.050  10.630  1.3217 -0.5131  0.5306
25139SOL    HW276859   1.923   4.125  10.736 -0.0629 -0.6534  1.6726
25140SOL     OW76860   6.996   0.657   6.132  0.3226 -0.1669 -0.2294
25140SOL    HW176861   6.987   0.562   6.125 -0.6563 -0.0389 -0.7935
25140SOL    HW276862   7.055   0.681   6.061 -2.9060  0.1263 -3.0167
25141SOL     OW76863   4.594   1.672   4.078 -0.4194 -0.1828 -0.3150
25141SOL    HW176864   4.617   1.719   3.997  0.1507  0.0093 -0.0450
25141SOL    HW276865   4.677   1.638   4.110 -0.2799  1.6242  1.3788
25142SOL     OW76866   5.757   3.687   9.191  0.2361 -0.1139  0.2387
25142SOL    HW176867   5.766   3.706   9.285  0.4823  0.1810  0.1586
25142SOL    HW276868   5.730   3.770   9.153 -0.2088 -0.3244  0.0947
25143SOL     OW76869   7.642   3.070  10.768 -0.1603  0.5718 -0.1842
25143SOL    HW176870   7.692   3.128  10.711 -0.1722  0.2454 -0.5253
25143SOL    HW276871   7.680   3.083  10.855 -0.2463  1.1837 -0.2366
25144SOL     OW76872   7.062   1.860   1.906  0.4013  0.4122  0.5113
25144SOL    HW176873   7.126   1.820   1.847  1.1811  2.0090  0.2320
25144SOL    HW276874   7.105   1.862   1.991 -0.1919 -0.5950  0.8657
25145SOL     OW76875   1.595   5.206   7.097 -0.0893 -0.1727 -0.0906
25145SOL    HW176876   1.576   5.278   7.037  1.9230 -1.1921 -2.0649
25145SOL    HW276877   1.528   5.141   7.077  1.0380 -0.8340 -1.8734
25146SOL     OW76878   2.316   7.513  11.324 -0.2284 -0.7042  0.0768
25146SOL    HW176879   2.278   7.598  11.300  3.2210  1.2206  0.7829
25146SOL    HW276880   2.355   7.481  11.243 -0.3794 -0.9771  0.1114
25147SOL     OW76881   6.136   7.152   4.164 -0.4016 -0.0484 -0.1001
25147SOL    HW176882   6.205   7.187   4.220  0.5253 -1.2712 -0.4393
25147SOL    HW276883   6.066   7.218   4.168  1.5137  2.2185 -1.3256
25148SOL     OW76884   1.770   5.650   3.603 -0.3852  0.1523 -0.5573
25148SOL    HW176885   1.743   5.579   3.545 -3.0096  0.2947  0.3441
25148SOL    HW276886   1.727   5.630   3.687  1.9835  0.7897  0.9281
25149SOL     OW76887   3.230   0.997   9.308 -0.3390 -0.5246 -0.2131
25149SOL    HW176888   3.260   1.068   9.366 -1.3062  0.9779 -1.4510
25149SOL    HW276889   3.143   0.974   9.342 -0.1740 -0.8769 -0.0270
25150SOL     OW76890   3.033   7.616  10.828 -0.3461 -0.3536  0.1245
25150SOL    HW176891   3.094   7.605  10.901  0.2252 -0.6964 -0.3963
25150SOL    HW276892   2.953   7.650  10.868 -0.5189 -1.8291  1.1157
25151SOL     OW76893   4.693   2.183   0.359  0.3988 -0.0309 -0.1259
25151SOL    HW176894   4.758   2.158   0.425  0.6783 -1.1753 -0.7910
25151SOL    HW276895   4.626   2.230   0.408 -0.1283 -2.0771  1.2839
25152SOL     OW76896   0.240   5.211   8.795 -0.5795 -0.6777  0.1715
25152SOL    HW176897   0.307   5.170   8.741  0.2187 -1.0846  1.4057
25152SOL    HW276898   0.225   5.296   8.754  0.6534 -0.6095 -0.2012
25153SOL     OW76899   2.711   6.218   4.457  0.1467 -0.4248 -0.3118
25153SOL    HW176900   2.725   6.124   4.446 -3.0103 -1.0650  0.2349
25153SOL    HW276901   2.650   6.225   4.530 -1.3510  1.8808 -1.6533
25154SOL     OW76902   3.135   0.026   5.888 -0.2117 -0.7833 -0.0716
25154SOL    HW176903   3.133   0.033   5.793  0.5166 -0.1090 -0.0524
25154SOL    HW276904   3.087   0.103   5.918 -1.1869 -1.4456  0.1130
25155SOL     OW76905   4.357   6.662  10.677  0.1492  0.3622 -0.0529
25155SOL    HW176906   4.450   6.642  10.670  0.0912  0.7062 -4.1203
25155SOL    HW276907   4.354   6.758  10.684  0.1057  0.3958 -0.5125
25156SOL     OW76908   0.026   6.579  10.257  0.9879 -0.1536  0.4630
25156SOL    HW176909  -0.020   6.658  10.286 -1.8999 -0.0558 -3.5565
25156SOL    HW276910   0.095   6.610  10.199  0.3573 -0.4977 -0.4953
25157SOL     OW76911   7.079   7.027   2.065 -0.0676 -0.0293 -0.2538
25157SOL    HW176912   7.097   7.007   2.157 -1.7948 -1.1775 -0.1034
25157SOL    HW276913   6.991   7.065   2.067 -0.7269 -1.3765 -1.5314
25158SOL     OW76914   1.140   2.410   4.018  0.0649  0.0775  0.3761
25158SOL    HW176915   1.098   2.405   3.932  0.2348  0.3606  0.2719
25158SOL    HW276916   1.068   2.416   4.080 -0.0751  2.3660  0.0774
25159SOL     OW76917   6.643   4.186   5.666 -0.0486 -0.2153  0.0687
25159SOL    HW176918   6.707   4.164   5.734 -0.5215  1.6140  1.1763
25159SOL    HW276919   6.695   4.229   5.598 -0.1067  1.9611  1.3066
25160SOL     OW76920   7.437   4.368  12.141 -0.2030  0.0442  0.1051
25160SOL    HW176921   7.469   4.305  12.205 -0.9145  0.4049  0.8489
25160SOL    HW276922   7.425   4.449  12.192 -1.0539  0.2608 -0.4261
25161SOL     OW76923   6.721   6.363   6.423 -0.2244 -0.0884  0.5363
25161SOL    HW176924   6.764   6.313   6.354  1.4931 -1.0617  2.2187
25161SOL    HW276925   6.681   6.437   6.378 -0.6682 -1.5977 -1.6999
25162SOL     OW76926   0.521   6.753   6.388  0.7433  0.1671 -0.2621
25162SOL    HW176927   0.526   6.672   6.440  1.6661  0.3006 -0.1200
25162SOL    HW276928   0.428   6.766   6.374  0.5981 -1.3530 -0.9533
25163SOL     OW76929   3.458   1.877   9.866 -0.4069  0.1013 -0.7928
25163SOL    HW176930   3.482   1.796   9.821 -0.5665  0.8349 -2.2739
25163SOL    HW276931   3.371   1.859   9.904 -1.9033  0.4952 -3.7544
25164SOL     OW76932   2.700   6.661  11.405 -0.1213  0.2075 -0.4843
25164SOL    HW176933   2.782   6.636  11.447 -0.3012  0.3028 -0.0754
25164SOL    HW276934   2.717   6.652  11.311  0.3100  0.0865 -0.3940
25165SOL     OW76935   1.249   1.686   9.851  0.2935 -0.1049  0.2186
25165SOL    HW176936   1.330   1.662   9.807  0.1297 -0.3246  0.0370
25165SOL    HW276937   1.207   1.747   9.791 -0.9558 -2.0158 -0.9564
25166SOL     OW76938   7.286   6.270  12.119 -0.1799 -0.5976  0.0785
25166SOL    HW176939   7.281   6.253  12.213  0.1249 -1.5194 -0.0663
25166SOL    HW276940   7.363   6.326  12.110 -1.6751  1.6930  0.6503
25167SOL     OW76941   5.509   2.337   0.467 -0.3534  0.0435  0.5978
25167SOL    HW176942   5.595   2.322   0.505 -0.6362  0.2902  1.3489
25167SOL    HW276943   5.461   2.255   0.481 -0.1951 -0.1551  0.0277
25168SOL     OW76944   1.840   2.949  11.002 -0.3335 -0.9775 -0.2665
25168SOL    HW176945   1.821   2.954  11.096  0.4134  0.8412 -0.1851
25168SOL    HW276946   1.931   2.921  10.998 -0.1583 -0.3931 -0.4281
25169SOL     OW76947   1.870   0.186   5.544  0.3466  0.0683 -0.0459
25169SOL    HW176948   1.851   0.266   5.494  0.5072  0.1907  0.0899
25169SOL    HW276949   1.940   0.211   5.604 -1.2105  0.5032  1.6953
25170SOL     OW76950   5.054   0.431   2.580 -0.4773 -0.1969  0.4679
25170SOL    HW176951   4.968   0.473   2.587  0.2136  1.3292  0.2414
25170SOL    HW276952   5.116   0.503   2.585  0.8131 -1.2893  0.7926
25171SOL     OW76953   0.115   6.185   2.922 -0.4977 -0.4168  0.7341
25171SOL    HW176954   0.188   6.216   2.975  0.2054  0.3560 -0.6261
25171SOL    HW276955   0.077   6.264   2.884  0.0017 -1.0029 -1.1098
25172SOL     OW76956   5.740   6.150   1.132 -0.4168 -0.3948 -0.3964
25172SOL    HW176957   5.786   6.121   1.211  0.5023 -1.3808 -1.2612
25172SOL    HW276958   5.648   6.130   1.148 -0.3920  0.3356  0.8074
25173SOL     OW76959   6.860   3.848  11.027 -0.5913  0.5401  0.9414
25173SOL    HW176960   6.881   3.758  11.051 -0.1874  0.5578  0.6614
25173SOL    HW276961   6.838   3.890  11.111 -0.5340  0.2482  1.1040
25174SOL     OW76962   5.072   0.898   7.999  0.3119  0.2879  0.1734
25174SOL    HW176963   5.068   0.913   8.094  2.8688 -0.9705  0.5673
25174SOL    HW276964   5.051   0.806   7.988  0.3237  0.3578 -0.4603
25175SOL     OW76965   2.383   7.384   5.821 -0.0234 -0.4048  0.6382
25175SOL    HW176966   2.422   7.418   5.740  0.4920  0.9779  1.4457
25175SOL    HW276967   2.291   7.411   5.816  0.2653  0.6791  1.0295
25176SOL     OW76968   0.288   5.680  10.147 -0.5766  0.5093  0.4066
25176SOL    HW176969   0.265   5.651  10.058  0.5327  1.5180 -0.2366
25176SOL    HW276970   0.362   5.624  10.171 -0.7897  0.3296  0.6540
25177SOL     OW76971   4.887   6.333   4.008 -0.0652 -0.5065 -0.0949
25177SOL    HW176972   4.843   6.314   4.091  0.5830  0.8513  0.5854
25177SOL    HW276973   4.923   6.249   3.981 -0.5991 -1.0481  0.8095
25178SOL     OW76974   2.851   3.079   5.552 -0.2674  0.5520 -0.3133
25178SOL    HW176975   2.810   2.998   5.582  1.1308  0.2362  0.8725
25178SOL    HW276976   2.944   3.061   5.555  0.0883  2.2552  0.1685
25179SOL     OW76977   2.123   1.972   5.466 -0.9177 -0.3799  0.0611
25179SOL    HW176978   2.138   2.059   5.429 -1.7075 -0.1609  0.2355
25179SOL    HW276979   2.065   1.987   5.541 -1.1305 -1.0675  0.0464
25180SOL     OW76980   1.553   0.711   0.883  0.1463 -0.2701  0.3369
25180SOL    HW176981   1.477   0.769   0.889  1.2207  1.1019  1.5266
25180SOL    HW276982   1.627   0.770   0.868  0.6667 -1.7685 -5.3608
25181SOL     OW76983   6.349   7.906   0.711  0.3938  0.2817  0.1505
25181SOL    HW176984   6.254   7.892   0.707  0.4469  0.0262 -0.3024
25181SOL    HW276985   6.374   7.921   0.620  0.4228  2.8647  0.5085
25182SOL     OW76986   2.335   2.377   1.709  0.1651 -0.3111  0.1483
25182SOL    HW176987   2.285   2.295   1.700  0.2868 -0.4979  1.0435
25182SOL    HW276988   2.397   2.358   1.779  0.1199  0.5926  0.4336
25183SOL     OW76989   1.195   4.916   8.074 -0.6643  0.5496  0.3015
25183SOL    HW176990   1.270   4.874   8.033 -1.0460 -0.0077  0.1689
25183SOL    HW276991   1.218   5.009   8.075  0.5495  0.2658  1.3620
25184SOL     OW76992   3.955   1.824   6.737 -0.4306 -0.4038 -0.5740
25184SOL    HW176993   3.983   1.893   6.797  0.2584  0.6478 -2.0684
25184SOL    HW276994   3.891   1.773   6.788 -0.6822  1.0919  0.6862
25185SOL     OW76995   5.808   6.704   9.743 -0.0967 -0.0480  0.1423
25185SOL    HW176996   5.842   6.734   9.659  0.0525  0.6815  0.4579
25185SOL    HW276997   5.849   6.618   9.756 -0.5021 -0.3994 -0.7496
25186SOL     OW76998   0.645   4.108   9.956  0.4536  0.0514 -0.5130
25186SOL    HW176999   0.692   4.191   9.958  0.0635  0.2760 -0.6134
25186SOL    HW277000   0.623   4.094   9.864 -3.7204  2.2668 -0.0619
25187SOL     OW77001   3.144   5.269   6.963 -0.5554 -0.3995  0.0563
25187SOL    HW177002   3.136   5.190   6.909 -0.3870 -0.6088  0.3339
25187SOL    HW277003   3.155   5.340   6.900  1.1716 -0.8184 -0.1812
25188SOL     OW77004   4.985   6.945   7.527 -0.4075 -0.3824  0.1163
25188SOL    HW177005   5.053   7.012   7.534  1.7250 -2.5169  1.3459
25188SOL    HW277006   4.933   6.956   7.607 -0.9696  0.6610 -0.3722
25189SOL     OW77007   6.041   2.823   0.094  0.0102  0.6229  0.2507
25189SOL    HW177008   5.983   2.835   0.169 -1.4610 -1.5210 -0.4399
25189SOL    HW277009   6.055   2.728   0.089  0.7447  0.7798 -1.6630
25190SOL     OW77010   1.804   7.792  11.000 -0.1122 -0.6949  0.3271
25190SOL    HW177011   1.798   7.719  10.938  0.7327 -2.3092  2.0458
25190SOL    HW277012   1.726   7.844  10.983  0.0454 -1.1240 -2.0006
25191SOL     OW77013   3.040   6.989   0.177 -0.3807 -0.0885 -0.3747
25191SOL    HW177014   2.967   6.930   0.157  0.1286 -0.3509 -1.5681
25191SOL    HW277015   3.114   6.953   0.129  0.9624 -0.6589  1.9750
25192SOL     OW77016   6.298   4.528   0.375  0.5620  0.4490 -0.3416
25192SOL    HW177017   6.375   4.480   0.344  0.4252  0.7938 -1.2411
25192SOL    HW277018   6.271   4.481   0.454  0.8969 -0.4733 -0.7604
25193SOL     OW77019   6.263   4.574   5.224  0.1956 -0.2648 -0.7559
25193SOL    HW177020   6.189   4.533   5.179  0.8388 -1.0846 -1.1080
25193SOL    HW277021   6.337   4.517   5.204  0.7139 -0.0625  0.4825
25194SOL     OW77022   4.239   1.943   9.186 -0.1899 -0.3371  0.6065
25194SOL    HW177023   4.180   1.974   9.117  0.9030  0.0560 -0.1661
25194SOL    HW277024   4.257   2.021   9.238 -1.2086 -0.6792  1.5272
25195SOL     OW77025   3.945   0.114  12.454  0.1456  0.3489  1.0820
25195SOL    HW177026   3.938   0.208  12.467  6.0269  1.2815  0.3902
25195SOL    HW277027   3.916   0.100  12.364  0.4470  1.7974  0.7343
25196SOL     OW77028   3.230   7.937   5.274  0.3533 -0.2680 -0.5466
25196SOL    HW177029   3.143   7.939   5.315  0.2764  2.4662 -0.6463
25196SOL    HW277030   3.284   7.885   5.335 -0.2698  1.8968  2.0564
25197SOL     OW77031   4.826   7.154   7.031 -0.0750 -0.6515 -0.2545
25197SOL    HW177032   4.835   7.101   7.110 -2.0940  0.7074  0.9662
25197SOL    HW277033   4.915   7.158   6.995  0.5173 -3.0360  0.7533
25198SOL     OW77034   5.001   7.018   6.733  0.7588  0.2962  0.5159
25198SOL    HW177035   4.965   6.941   6.689  0.8952  0.6289 -0.1820
25198SOL    HW277036   5.082   7.037   6.686  1.0266  0.5198  1.0609
25199SOL     OW77037   7.000   4.782   3.342 -0.5129  0.4120  0.6126
25199SOL    HW177038   7.064   4.757   3.409  1.4173 -0.3947 -1.3989
25199SOL    HW277039   6.926   4.722   3.356  1.0982 -1.7877  0.2269
25200SOL     OW77040   0.826   4.217   8.652 -0.5496 -0.5705  0.2320
25200SOL    HW177041   0.887   4.189   8.584 -0.3639  1.3941 -0.4564
25200SOL    HW277042   0.870   4.290   8.695 -2.3958  0.9682 -0.3502
25201SOL     OW77043   2.376   3.178  11.978  0.0764 -0.4408  0.3030
25201SOL    HW177044   2.306   3.214  11.923 -0.5740 -1.4143  0.4566
25201SOL    HW277045   2.437   3.138  11.916 -0.1938 -0.7560  0.2395
25202SOL     OW77046   1.123   6.566  10.125  0.4022 -0.1964 -0.5997
25202SOL    HW177047   1.097   6.656  10.144 -0.1837 -0.2481 -1.1148
25202SOL    HW277048   1.098   6.516  10.203 -0.6198 -0.1556 -0.8822
25203SOL     OW77049   1.278   5.540  12.177 -0.0373  0.7256  0.0733
25203SOL    HW177050   1.329   5.589  12.241  0.8598 -1.3850  1.0595
25203SOL    HW277051   1.193   5.528  12.220  0.6000 -0.7876  0.9748
25204SOL     OW77052   1.457   0.197   0.129 -0.1343  0.3014  0.0491
25204SOL    HW177053   1.511   0.233   0.199  0.3680  1.3359 -0.8226
25204SOL    HW277054   1.377   0.166   0.172  1.1696 -1.3773  1.3853
25205SOL     OW77055   7.456   2.393   6.735 -0.2274  0.1765  0.2607
25205SOL    HW177056   7.514   2.370   6.807  0.6809  1.2636 -0.0995
25205SOL    HW277057   7.500   2.465   6.690 -0.7089 -0.5490 -1.4661
25206SOL     OW77058   2.970   3.147   8.193 -0.3914  0.2046 -0.1635
25206SOL    HW177059   2.919   3.209   8.142 -0.2361  1.2574  0.9155
25206SOL    HW277060   2.912   3.072   8.206 -1.2182  0.8640 -0.0021
25207SOL     OW77061   1.833   0.249   0.678  0.0900  0.4585 -0.0040
25207SOL    HW177062   1.760   0.302   0.710  1.0182  1.9709 -0.3349
25207SOL    HW277063   1.808   0.226   0.589 -1.2391 -1.4530  0.7784
25208SOL     OW77064   7.537   4.018   9.776 -0.2327  0.9926 -0.4318
25208SOL    HW177065   7.505   3.999   9.864 -1.0171 -3.3598 -1.4430
25208SOL    HW277066   7.464   4.063   9.732 -0.4622  1.6308  0.5753
25209SOL     OW77067   3.656   3.174  10.806 -0.2249 -0.6378  0.3440
25209SOL    HW177068   3.644   3.235  10.733 -1.6742  1.3672  2.1567
25209SOL    HW277069   3.704   3.100  10.767 -0.3524  0.6204 -2.4553
25210SOL     OW77070   3.470   6.270  10.516 -0.0082  0.3093  0.0016
25210SOL    HW177071   3.527   6.259  10.440  0.3876 -2.1380  0.5508
25210SOL    HW277072   3.516   6.333  10.572  2.0091 -1.2355  0.2082
25211SOL     OW77073   1.361   3.730   7.633 -0.0190 -0.5554 -0.1133
25211SOL    HW177074   1.373   3.651   7.579  1.0681 -0.5541  0.1006
25211SOL    HW277075   1.409   3.711   7.714 -0.0910  0.1656  0.1014
25212SOL     OW77076   4.110   3.030   6.606 -0.2694 -0.3014 -0.4839
25212SOL    HW177077   4.075   3.070   6.686  1.5417  0.9382 -0.2327
25212SOL    HW277078   4.202   3.014   6.627  0.2949  0.2472 -2.3808
25213SOL     OW77079   1.900   6.349   4.695 -0.2541  0.1063 -0.1759
25213SOL    HW177080   1.866   6.420   4.640 -1.2917 -0.2243  0.0313
25213SOL    HW277081   1.940   6.289   4.632 -0.8572  0.0511 -0.5123
25214SOL     OW77082   3.075   1.521   2.525 -0.0575 -0.2704 -0.0557
25214SOL    HW177083   2.985   1.488   2.520 -0.3045  0.3886 -0.1650
25214SOL    HW277084   3.073   1.602   2.473  1.1285 -1.3798 -1.9708
25215SOL     OW77085   6.589   6.115  11.295 -0.2228 -0.1020  0.0986
25215SOL    HW177086   6.684   6.109  11.292 -0.1839 -0.3549  1.3999
25215SOL    HW277087   6.564   6.143  11.207  1.1538  1.3040  0.1108
25216SOL     OW77088   2.033   2.289  12.234 -0.2681 -0.2539 -0.3642
25216SOL    HW177089   2.068   2.363  12.284  0.7018 -0.6790 -0.3887
25216SOL    HW277090   1.957   2.325  12.188 -1.8980 -0.1046  2.2476
25217SOL     OW77091   6.320   3.791   8.810  0.4196 -0.2720  0.3098
25217SOL    HW177092   6.384   3.754   8.750  1.2393  0.4030  0.7413
25217SOL    HW277093   6.287   3.716   8.859  0.4002 -0.7084 -0.3604
25218SOL     OW77094   4.553   1.022  11.521  0.4226  0.1032  0.0384
25218SOL    HW177095   4.545   0.967  11.443 -0.2643  0.7708 -0.3762
25218SOL    HW277096   4.558   1.111  11.487  1.8285  0.2912  0.6892
25219SOL     OW77097   0.462   5.213   9.653  0.1682  0.2055 -0.1473
25219SOL    HW177098   0.499   5.292   9.691 -0.9328  1.9522 -2.4776
25219SOL    HW277099   0.510   5.201   9.571 -0.3778 -0.9432 -0.3168
25220SOL     OW77100   4.773   5.752   4.167 -0.0243  0.4396  0.7753
25220SOL    HW177101   4.705   5.765   4.101  0.6468  0.1631  0.0023
25220SOL    HW277102   4.763   5.661   4.194  1.8439 -0.5779 -1.5276
25221SOL     OW77103   6.847   3.301   7.157  0.1989  0.0180 -0.3492
25221SOL    HW177104   6.890   3.380   7.124  0.6355 -0.1985 -0.2980
25221SOL    HW277105   6.753   3.320   7.149  0.3010  0.5548 -0.3084
25222SOL     OW77106   1.501   4.160  11.449 -0.2423  1.1602 -0.5048
25222SOL    HW177107   1.548   4.240  11.426  1.7606  0.6146  1.3204
25222SOL    HW277108   1.540   4.133  11.532 -2.5457 -0.4103  0.1649
25223SOL     OW77109   6.841   3.750   8.491 -0.4579 -0.3577  0.2373
25223SOL    HW177110   6.818   3.701   8.412 -1.9731 -1.0522  1.0551
25223SOL    HW277111   6.829   3.842   8.466  3.6474 -0.1158 -1.7010
25224SOL     OW77112   1.387   0.678   2.342 -0.4532  0.1343 -0.0740
25224SOL    HW177113   1.304   0.660   2.386 -1.3162 -0.4147 -1.8108
25224SOL    HW277114   1.428   0.592   2.331 -1.3728 -0.1115 -2.3204
25225SOL     OW77115   7.161   5.866   1.409 -0.2249 -0.2001  0.2539
25225SOL    HW177116   7.119   5.807   1.471  0.7246 -1.2461 -0.0747
25225SOL    HW277117   7.138   5.831   1.323  1.7556 -1.1582  0.0656
25226SOL     OW77118   5.540   6.536   3.802 -0.0643 -0.1597 -0.0580
25226SOL    HW177119   5.507   6.609   3.855  0.5426 -0.4912  0.8113
25226SOL    HW277120   5.467   6.475   3.797 -0.1948 -0.0316  0.2414
25227SOL     OW77121   5.423   0.803   4.460 -0.2255 -0.0165 -0.0272
25227SOL    HW177122   5.350   0.858   4.488 -1.1471 -0.8995 -0.6100
25227SOL    HW277123   5.492   0.865   4.436 -0.7320  0.8331  0.6369
25228SOL     OW77124   0.469   3.140   6.482 -0.8843 -0.2370  0.3881
25228SOL    HW177125   0.535   3.072   6.494 -1.8104 -1.1814  0.3403
25228SOL    HW277126   0.414   3.134   6.561  0.1536  1.8071  1.3397
25229SOL     OW77127   3.203   2.081   9.538 -0.4784  0.2995 -0.2224
25229SOL    HW177128   3.292   2.116   9.540  0.0708 -1.0640  1.1178
25229SOL    HW277129   3.161   2.117   9.616 -0.6956 -0.0678 -0.1678
25230SOL     OW77130   0.683   4.781   2.664 -0.9707 -0.6250  0.2081
25230SOL    HW177131   0.704   4.869   2.634 -2.3052 -0.7712 -1.3476
25230SOL    HW277132   0.699   4.782   2.758  1.8821  0.3823 -0.1876
25231SOL     OW77133   7.541   1.699   1.163  0.4733  0.0850  0.0991
25231SOL    HW177134   7.493   1.616   1.169  1.1484 -0.4141 -1.0911
25231SOL    HW277135   7.632   1.673   1.145  0.6721  1.0861 -0.4016
25232SOL     OW77136   4.069   5.642   6.235 -0.4219 -0.7096 -0.8584
25232SOL    HW177137   4.122   5.691   6.297 -1.5248  1.3595 -1.4518
25232SOL    HW277138   4.103   5.666   6.149 -0.0251 -2.1961 -1.1465
25233SOL     OW77139   1.489   6.393   1.884 -0.5640 -0.3222  0.6039
25233SOL    HW177140   1.562   6.402   1.824  0.9987  0.7306  2.5358
25233SOL    HW277141   1.476   6.299   1.894 -0.2460 -0.5087 -0.6404
25234SOL     OW77142   5.688   3.043   6.304  0.4915 -0.7228  0.0149
25234SOL    HW177143   5.692   3.121   6.249 -2.6677 -1.3477 -1.3408
25234SOL    HW277144   5.722   2.972   6.248 -0.1917 -0.9156 -0.1641
25235SOL     OW77145   1.606   4.864   3.578  0.0645  0.1316  0.0454
25235SOL    HW177146   1.544   4.792   3.568 -0.4748  0.6291 -0.2830
25235SOL    HW277147   1.629   4.865   3.670  1.5506 -1.6584 -0.2474
25236SOL     OW77148   3.303   0.905   5.422 -0.4108  0.0724 -0.2891
25236SOL    HW177149   3.282   0.884   5.331 -1.3547  0.6075 -0.1986
25236SOL    HW277150   3.249   0.981   5.442  0.2923  0.3709  0.5152
25237SOL     OW77151   6.902   5.236  10.945  0.4247 -0.7777  0.2085
25237SOL    HW177152   6.963   5.275  11.007  1.7731 -0.5036 -1.2085
25237SOL    HW277153   6.914   5.141  10.956  1.3102 -0.7249 -0.2240
25238SOL     OW77154   4.824   2.908   6.496 -0.5719  0.1289  0.6868
25238SOL    HW177155   4.910   2.945   6.518 -0.8372  0.9307  0.4048
25238SOL    HW277156   4.839   2.857   6.416 -0.2487 -0.2184  0.9618
25239SOL     OW77157   7.442   6.760   7.177  0.0105 -0.0991 -0.4039
25239SOL    HW177158   7.511   6.780   7.240  0.7148 -0.6848 -0.9788
25239SOL    HW277159   7.391   6.691   7.219 -0.6581  0.7991  0.3151
25240SOL     OW77160   3.671   5.179   1.527  0.5428  0.1954  0.4927
25240SOL    HW177161   3.669   5.137   1.613  0.2680 -0.9100 -0.0421
25240SOL    HW277162   3.745   5.139   1.482 -0.4607 -0.6261 -0.4682
25241SOL     OW77163   3.563   0.697   1.616 -0.2276 -0.2678 -0.4697
25241SOL    HW177164   3.531   0.731   1.700 -0.6550  1.2042 -1.1902
25241SOL    HW277165   3.632   0.757   1.590  0.1950 -0.9577 -0.9883
25242SOL     OW77166   6.158   0.513  10.961 -0.3396  0.3933  0.1981
25242SOL    HW177167   6.192   0.452  10.896 -0.9352  0.5751 -0.2951
25242SOL    HW277168   6.133   0.458  11.035 -2.4984 -0.1931 -0.9118
25243SOL     OW77169   3.829   1.360   3.218  0.2619  0.0343 -0.1911
25243SOL    HW177170   3.876   1.440   3.196  0.8852 -0.4093 -0.5070
25243SOL    HW277171   3.845   1.302   3.144 -1.4851  0.1516 -0.7065
25244SOL     OW77172   5.434   4.250   3.483  0.8971 -0.1421  0.2314
25244SOL    HW177173   5.356   4.302   3.500  0.9431  0.3326 -0.8994
25244SOL    HW277174   5.456   4.211   3.568 -1.2537 -1.2862  0.3327
25245SOL     OW77175   5.976   2.352   4.002  0.1903 -0.5974  0.3902
25245SOL    HW177176   5.967   2.260   4.026 -2.0030 -0.4492  0.3336
25245SOL    HW277177   5.958   2.355   3.908 -0.5314 -0.0282  0.5383
25246SOL     OW77178   4.262   1.901   5.316 -0.0658  0.3932 -0.2031
25246SOL    HW177179   4.339   1.850   5.291 -0.2437  0.3188 -0.6068
25246SOL    HW277180   4.195   1.876   5.252 -0.4127  0.4916  0.1166
25247SOL     OW77181   1.099   0.810  11.939 -0.0658  0.0385 -0.0181
25247SOL    HW177182   1.138   0.784  11.856  0.1038  0.6363 -0.1312
25247SOL    HW277183   1.108   0.905  11.941  2.8194 -0.1376  2.0625
25248SOL     OW77184   6.180   4.902  10.314 -0.5643  0.6650  0.6845
25248SOL    HW177185   6.138   4.947  10.241 -1.9953  0.5133  1.3788
25248SOL    HW277186   6.125   4.922  10.390  1.0542  1.0872  1.8127
25249SOL     OW77187   7.036   7.975   2.609  0.2797 -0.0303 -0.4918
25249SOL    HW177188   6.946   8.003   2.596  0.0812 -0.3209  0.2298
25249SOL    HW277189   7.064   7.943   2.523 -0.1139  0.5892 -0.8550
25250SOL     OW77190   5.623   4.851  11.930 -0.1867 -0.2719  0.3426
25250SOL    HW177191   5.559   4.907  11.886 -0.1699  1.0419  1.8815
25250SOL    HW277192   5.582   4.833  12.015  1.0651 -0.2059  0.9739
25251SOL     OW77193   0.025   4.882  11.723  0.1353 -0.4414  0.1353
25251SOL    HW177194  -0.024   4.893  11.804  0.6904 -0.3322  0.4642
25251SOL    HW277195  -0.042   4.878  11.654 -0.2561  2.9975  0.1463
25252SOL     OW77196   3.470   0.180   0.671  0.1736  0.2283 -0.1562
25252SOL    HW177197   3.400   0.220   0.620 -0.2368  1.4496  1.2880
25252SOL    HW277198   3.438   0.183   0.761  1.3264 -0.8629  0.3148
25253SOL     OW77199   5.962   1.923   7.884 -0.2677  0.3698  0.8784
25253SOL    HW177200   5.931   1.838   7.915 -1.5833  1.1212  1.7293
25253SOL    HW277201   5.991   1.969   7.963 -0.1366  0.9386  0.5083
25254SOL     OW77202   7.845   5.180   7.127 -0.3646 -0.7932 -0.0581
25254SOL    HW177203   7.899   5.195   7.205 -1.3348 -1.2378  0.7301
25254SOL    HW277204   7.816   5.267   7.101 -1.5728 -0.7589  1.2459
25255SOL     OW77205   0.563   1.477   2.173 -0.1646 -0.5496  0.6249
25255SOL    HW177206   0.486   1.534   2.164 -0.8207 -1.5500 -0.4511
25255SOL    HW277207   0.580   1.474   2.267  0.3327  1.9557  0.6795
25256SOL     OW77208   5.308   2.744   2.584  0.7741  0.2961 -0.3755
25256SOL    HW177209   5.244   2.791   2.532 -0.0656 -0.0804  0.2870
25256SOL    HW277210   5.298   2.780   2.672 -0.9397 -2.0439  0.4973
25257SOL     OW77211   6.568   5.538  11.961  0.1600 -0.3588 -0.1020
25257SOL    HW177212   6.632   5.608  11.947  2.2086 -2.3499 -1.5145
25257SOL    HW277213   6.525   5.562  12.043  1.1857  2.2012 -0.2041
25258SOL     OW77214   7.829   2.522   7.905 -0.0446 -0.4016 -0.2098
25258SOL    HW177215   7.820   2.520   7.809  0.6108  0.3873 -0.2974
25258SOL    HW277216   7.886   2.448   7.925  1.6554  0.7417 -0.6665
25259SOL     OW77217   0.092   0.651   9.798  0.8832  0.1480  0.6100
25259SOL    HW177218   0.075   0.561   9.769  0.3061  1.0309 -2.1233
25259SOL    HW277219   0.102   0.644   9.893 -1.4788 -2.4614  0.8193
25260SOL     OW77220   1.116   6.461   8.906 -0.1635 -0.4764  0.3724
25260SOL    HW177221   1.182   6.405   8.864  0.7372  0.5455  0.3771
25260SOL    HW277222   1.160   6.545   8.917 -2.5117  1.4273 -2.8951
25261SOL     OW77223   1.651   5.947   8.488 -0.3397  0.7169 -0.0182
25261SOL    HW177224   1.659   6.008   8.414  1.6125  0.0705 -0.4030
25261SOL    HW277225   1.724   5.969   8.545 -1.8060  1.1816  1.7485
25262SOL     OW77226   2.834   3.971   5.909  0.1595 -0.0304  0.0110
25262SOL    HW177227   2.782   3.949   5.986  0.5228 -0.5978  0.1040
25262SOL    HW277228   2.826   4.066   5.900  1.9658  0.3817  2.1132
25263SOL     OW77229   6.764   0.792   6.138  0.3196  0.1947  0.5190
25263SOL    HW177230   6.854   0.760   6.141  0.6601  0.8148 -1.6246
25263SOL    HW277231   6.712   0.715   6.114  0.4502  0.1244  0.4602
25264SOL     OW77232   4.287   3.484   5.168 -0.3386  0.6466 -0.4670
25264SOL    HW177233   4.225   3.414   5.150 -0.8926  0.1809  2.7186
25264SOL    HW277234   4.255   3.525   5.249  0.9453  3.4658 -1.2372
25265SOL     OW77235   4.945   6.013   7.028  0.0730 -0.3227 -0.2134
25265SOL    HW177236   4.931   6.104   7.001  2.1621 -0.1675 -1.0020
25265SOL    HW277237   5.039   6.009   7.050 -0.4733 -1.6897  2.2484
25266SOL     OW77238   6.551   1.320  10.740  0.2523  0.0960  0.0976
25266SOL    HW177239   6.531   1.390  10.802 -0.4095 -0.3612  0.4103
25266SOL    HW277240   6.580   1.366  10.661  0.8259  0.6917  0.6348
25267SOL     OW77241   1.770   5.317   4.443 -0.7738  0.1654 -0.5338
25267SOL    HW177242   1.767   5.341   4.535 -1.0621 -2.4506  0.2155
25267SOL    HW277243   1.688   5.270   4.428  0.0687 -1.0488 -1.5953
25268SOL     OW77244   6.726   0.368   6.305 -0.1249 -0.0790 -0.0566
25268SOL    HW177245   6.798   0.411   6.260 -0.9708  1.2962 -0.1677
25268SOL    HW277246   6.648   0.395   6.256 -0.9578  0.5717  1.5415
25269SOL     OW77247   5.297   7.674   3.547  0.2213 -0.0993  0.1385
25269SOL    HW177248   5.370   7.661   3.608  0.3618  0.7414  0.1698
25269SOL    HW277249   5.228   7.713   3.600  0.2748  0.4574 -0.1939
25270SOL     OW77250   6.069   0.526   3.202 -0.3365 -0.4161 -0.0238
25270SOL    HW177251   6.063   0.549   3.295 -0.9659 -0.4417 -0.0564
25270SOL    HW277252   6.140   0.461   3.198  1.9760  1.9518 -0.0232
25271SOL     OW77253   6.073   6.725   0.859 -0.0244 -0.1961 -0.3398
25271SOL    HW177254   6.061   6.647   0.912 -1.1979 -0.5423 -1.0635
25271SOL    HW277255   6.166   6.745   0.866  0.6935 -2.6547 -1.4555
25272SOL     OW77256   3.561   3.763   2.560 -0.0889 -0.2449  0.2339
25272SOL    HW177257   3.574   3.788   2.469 -1.5398 -2.0613 -0.5325
25272SOL    HW277258   3.641   3.792   2.605  0.5135  0.9538 -1.5261
25273SOL     OW77259   6.244   1.221  11.578 -0.2841  0.0916 -0.6817
25273SOL    HW177260   6.236   1.138  11.626 -0.9996  0.8602  0.5640
25273SOL    HW277261   6.334   1.220  11.544  0.2053 -0.5463  0.5661
25274SOL     OW77262   2.955   3.212   3.696 -0.1440 -0.2718  0.4391
25274SOL    HW177263   3.010   3.271   3.747  0.4736  0.3058 -0.8779
25274SOL    HW277264   2.872   3.210   3.744 -0.0272  1.3037  0.7634
25275SOL     OW77265   5.844   3.731   3.750  0.0309 -0.4015 -0.1513
25275SOL    HW177266   5.821   3.805   3.806 -0.5744  0.7710 -1.8795
25275SOL    HW277267   5.760   3.695   3.721  0.3309 -0.8770 -0.4543
25276SOL     OW77268   4.062   1.518  11.568  0.6932  0.6363 -0.3094
25276SOL    HW177269   3.975   1.478  11.564  0.3610  1.2728  0.2887
25276SOL    HW277270   4.121   1.451  11.533  0.4661 -1.2955  2.6812
25277SOL     OW77271   0.164   2.386   9.842  0.1007  0.2011  0.2170
25277SOL    HW177272   0.202   2.471   9.821  0.0166  0.4114  0.8639
25277SOL    HW277273   0.205   2.325   9.782 -1.1830  0.9703 -1.5361
25278SOL     OW77274   2.975   7.743   0.249  0.1717  0.5020 -0.2185
25278SOL    HW177275   3.068   7.766   0.250  0.6830 -1.1246 -2.4008
25278SOL    HW277276   2.961   7.706   0.162 -2.5351  0.6710  0.0806
25279SOL     OW77277   4.389   5.687   8.070 -0.5204 -0.1136  0.2650
25279SOL    HW177278   4.361   5.773   8.098 -0.4994 -0.0340  0.0454
25279SOL    HW277279   4.483   5.684   8.091 -0.5659 -0.1595  0.4588
25280SOL     OW77280   4.214   1.266   7.499  0.3715 -0.1332  0.6708
25280SOL    HW177281   4.236   1.258   7.406  1.7105  0.8323  0.8892
25280SOL    HW277282   4.281   1.323   7.535 -0.6811  0.2756  2.0489
25281SOL     OW77283   5.932   5.952   8.669  0.1877  0.1479  0.4468
25281SOL    HW177284   5.982   5.878   8.633 -1.1501 -0.5680  0.0191
25281SOL    HW277285   5.862   5.967   8.606 -0.0099  1.2986  0.9190
25282SOL     OW77286   0.376   5.403  11.646 -0.4030 -0.0918 -0.2255
25282SOL    HW177287   0.411   5.345  11.713 -0.7669 -1.1955 -0.9722
25282SOL    HW277288   0.395   5.359  11.563 -0.4231  0.9980 -0.8283
25283SOL     OW77289   4.131   3.980  11.477 -0.1371 -0.0420 -0.5538
25283SOL    HW177290   4.049   4.002  11.521  0.4486  1.3572 -0.0926
25283SOL    HW277291   4.160   4.063  11.438  1.7266 -0.1760  0.4583
25284SOL     OW77292   1.312   4.314  11.112  0.1082 -0.4298  0.0121
25284SOL    HW177293   1.322   4.396  11.159 -0.4165 -0.9648  1.0923
25284SOL    HW277294   1.333   4.246  11.176  2.1938 -1.1324 -1.2974
25285SOL     OW77295   5.539   0.741   6.443  0.4460  0.2862  0.0052
25285SOL    HW177296   5.476   0.672   6.464  0.1557  0.3807 -0.5443
25285SOL    HW277297   5.579   0.763   6.527  0.6028 -0.6085  0.1735
25286SOL     OW77298   6.762   1.955   7.479  0.5015  0.4194 -0.2737
25286SOL    HW177299   6.843   1.983   7.437  0.1478  0.6306 -0.8245
25286SOL    HW277300   6.744   2.023   7.544  1.9583 -0.7527  1.4863
25287SOL     OW77301   0.143   1.762   9.853 -0.6029 -0.3886 -0.5221
25287SOL    HW177302   0.175   1.803   9.772  1.1414 -1.5930 -0.4831
25287SOL    HW277303   0.189   1.809   9.923 -0.4382 -0.8167 -0.3455
25288SOL     OW77304   2.804   4.581   7.296 -0.0379 -0.3872 -0.6517
25288SOL    HW177305   2.834   4.672   7.289 -0.8740 -0.0970 -0.5826
25288SOL    HW277306   2.879   4.529   7.266  0.0797  0.3685 -1.7415
25289SOL     OW77307   2.378   6.484   7.096 -0.1923  0.2640 -0.3159
25289SOL    HW177308   2.422   6.412   7.140 -0.1358  0.2320 -0.4229
25289SOL    HW277309   2.341   6.537   7.166  1.2067  1.0767 -0.1572
25290SOL     OW77310   3.664   0.109   4.228  0.3878  0.5190 -0.1126
25290SOL    HW177311   3.623   0.187   4.264  0.4516  0.0350  1.0726
25290SOL    HW277312   3.592   0.048   4.215  0.4468  0.4685 -0.2049
25291SOL     OW77313   7.331   0.324   2.421 -0.6763 -0.0163  0.1186
25291SOL    HW177314   7.415   0.278   2.424 -0.7130 -0.1434 -0.7320
25291SOL    HW277315   7.334   0.384   2.496 -0.2734 -0.7768  0.7288
25292SOL     OW77316   6.519   3.516   2.265  0.0741  0.4561  0.3035
25292SOL    HW177317   6.547   3.541   2.353  0.2860  0.7764  0.1483
25292SOL    HW277318   6.600   3.490   2.221  0.2433  1.9904 -0.3440
25293SOL     OW77319   4.422   7.681   9.362 -0.3335  0.4322  0.3413
25293SOL    HW177320   4.455   7.681   9.452 -1.1278  0.0371  0.6458
25293SOL    HW277321   4.494   7.716   9.310 -0.3567  2.0106  1.2982
25294SOL     OW77322   2.089   5.436   7.697 -0.0149 -0.1568  0.0329
25294SOL    HW177323   2.077   5.511   7.755 -0.0741 -1.3600  1.6451
25294SOL    HW277324   2.178   5.405   7.717  0.0124 -0.5116 -0.6174
25295SOL     OW77325   3.867   4.496  10.998  0.3311  0.2196 -0.2765
25295SOL    HW177326   3.923   4.502  11.075 -0.5332  2.3825  0.2671
25295SOL    HW277327   3.924   4.519  10.925  1.2003 -2.0211 -0.3909
25296SOL     OW77328   0.332   4.029   1.900 -0.6191  0.0659  0.4498
25296SOL    HW177329   0.369   4.015   1.987  0.2064  1.7992  0.4137
25296SOL    HW277330   0.403   4.005   1.840 -0.6259  0.4301  0.2967
25297SOL     OW77331   4.996   5.015   3.870  0.2673  0.8578 -0.3630
25297SOL    HW177332   5.056   5.011   3.795 -0.4400 -0.7957 -0.9020
25297SOL    HW277333   5.006   4.930   3.912 -0.7845  1.0325  0.2678
25298SOL     OW77334   2.485   7.752   6.624 -0.1375 -0.2536 -0.3170
25298SOL    HW177335   2.532   7.700   6.558 -0.1458  0.9740 -1.3121
25298SOL    HW277336   2.465   7.834   6.581  1.1498  1.2092  1.6638
25299SOL     OW77337   2.187   0.477   5.766  0.3323  0.1962  0.6755
25299SOL    HW177338   2.143   0.394   5.782  0.7218  0.1262  1.4672
25299SOL    HW277339   2.139   0.517   5.694 -0.2867 -0.4033  0.7474
25300SOL     OW77340   2.764   7.316   4.673  0.2781 -0.0722  0.1806
25300SOL    HW177341   2.789   7.347   4.585  0.4982  0.3192  0.3799
25300SOL    HW277342   2.682   7.362   4.691  0.8296  0.7302  0.6571
25301SOL     OW77343   6.623   5.038   2.666 -0.3174 -0.3469 -0.1131
25301SOL    HW177344   6.717   5.020   2.663 -0.1677 -0.0203  1.6390
25301SOL    HW277345   6.609   5.102   2.596  0.8954  0.0941  0.0253
25302SOL     OW77346   2.286   2.968  10.725  0.2409 -0.7206 -0.6147
25302SOL    HW177347   2.243   2.883  10.731 -1.8123  0.3423  2.1944
25302SOL    HW277348   2.341   2.972  10.804  1.6054 -0.0077 -1.5474
25303SOL     OW77349   3.102   1.213  11.079 -0.6002  0.1670 -0.1731
25303SOL    HW177350   3.042   1.287  11.081 -1.4422 -0.5049  0.2239
25303SOL    HW277351   3.094   1.177  10.991  1.2331  1.6492 -1.0094
25304SOL     OW77352   3.821   3.893   2.519 -0.4593 -0.2397 -0.1882
25304SOL    HW177353   3.766   3.969   2.501  1.6150  0.8953 -2.1769
25304SOL    HW277354   3.861   3.912   2.603  1.1826  1.6730 -1.3292
25305SOL     OW77355   6.517   1.636   6.363 -0.1153  0.1229 -0.1213
25305SOL    HW177356   6.611   1.649   6.364 -0.0171 -0.4826  1.1835
25305SOL    HW277357   6.506   1.542   6.379 -0.9323  0.1930 -0.2272
25306SOL     OW77358   4.771   1.375  10.701  0.4921 -0.0391 -0.2397
25306SOL    HW177359   4.841   1.328  10.746 -0.5303 -0.9587  0.4341
25306SOL    HW277360   4.790   1.363  10.608  0.3686 -1.6440 -0.0832
25307SOL     OW77361   0.297   7.088  10.338 -0.2392  0.0374  0.3691
25307SOL    HW177362   0.365   7.062  10.276 -0.0558  0.1149  0.5339
25307SOL    HW277363   0.335   7.068  10.424  0.5899  2.3694  0.6054
25308SOL     OW77364   0.445   1.229   9.917 -0.5842 -0.3553 -0.6536
25308SOL    HW177365   0.521   1.185   9.954 -1.2609 -2.2509 -1.3744
25308SOL    HW277366   0.374   1.210   9.978 -0.8336  0.0136 -0.8226
25309SOL     OW77367   7.057   2.309   2.407 -0.3730 -0.0253 -0.1469
25309SOL    HW177368   7.101   2.240   2.457  0.4151  0.8772  0.4493
25309SOL    HW277369   7.127   2.372   2.388 -1.6557  2.3008  2.2610
25310SOL     OW77370   5.702   2.071   5.552 -0.1450 -0.0233  0.1774
25310SOL    HW177371   5.617   2.102   5.521 -0.5223 -1.9067 -0.7914
25310SOL    HW277372   5.762   2.087   5.479  0.5321  1.8982  1.0917
25311SOL     OW77373   3.352   2.875  11.703  0.3015 -1.1710  0.3976
25311SOL    HW177374   3.405   2.841  11.631 -1.0366 -1.2404 -0.5920
25311SOL    HW277375   3.351   2.804  11.767  0.2624 -1.7009 -0.1803
25312SOL     OW77376   0.802   6.603   0.925 -0.1319 -0.1244 -0.2528
25312SOL    HW177377   0.754   6.603   1.008  0.7026  1.4803  0.2632
25312SOL    HW277378   0.883   6.556   0.944 -0.8067 -1.5475 -0.7379
25313SOL     OW77379   5.900   6.756   0.436 -0.3245 -0.0335  0.0226
25313SOL    HW177380   5.885   6.661   0.429  0.6914 -0.2435  0.5445
25313SOL    HW277381   5.960   6.776   0.364 -0.8084  0.2828 -0.2979
25314SOL     OW77382   3.326   2.139  10.653 -0.6751  0.0854 -0.2102
25314SOL    HW177383   3.374   2.091  10.721 -1.2930  0.8529  0.8059
25314SOL    HW277384   3.368   2.225  10.651  0.9308 -0.6698 -2.5632
25315SOL     OW77385   6.040   0.129   9.940 -0.0503 -0.4333 -0.0938
25315SOL    HW177386   6.067   0.037   9.939 -1.3997 -0.8471 -0.6193
25315SOL    HW277387   6.036   0.152  10.033 -0.4343 -1.1477  0.0747
25316SOL     OW77388   0.075   6.458   5.688  0.0860 -1.1732 -0.4322
25316SOL    HW177389   0.126   6.411   5.754  1.1247  0.7710  0.2301
25316SOL    HW277390   0.000   6.494   5.737  0.8429  0.2458 -0.2643
25317SOL     OW77391   5.588   5.996   4.219 -0.2163 -0.6270  0.1045
25317SOL    HW177392   5.494   5.996   4.203 -0.1064  1.7037 -1.0018
25317SOL    HW277393   5.618   6.080   4.184  1.8064  0.0907  3.1866
25318SOL     OW77394   7.808   2.713   6.180  0.7460  0.7673  0.3240
25318SOL    HW177395   7.878   2.771   6.151  0.9665  0.4833  0.2838
25318SOL    HW277396   7.833   2.689   6.269  1.8226 -1.0240 -0.4032
25319SOL     OW77397   1.374   3.649   8.113  0.6525  0.3243  0.6025
25319SOL    HW177398   1.370   3.715   8.044 -0.6578  0.6616  0.9604
25319SOL    HW277399   1.333   3.571   8.075 -0.2535  0.5709  1.0261
25320SOL     OW77400   6.179   5.518   9.010 -0.3872 -1.0536 -0.1588
25320SOL    HW177401   6.224   5.546   8.931 -0.0318 -2.1088 -0.3462
25320SOL    HW277402   6.179   5.595   9.067 -0.9711 -0.1868 -1.3126
25321SOL     OW77403   1.343   6.096   9.613  0.3905  0.0238 -0.3552
25321SOL    HW177404   1.358   6.116   9.706  1.2664  1.5119 -0.7862
25321SOL    HW277405   1.417   6.137   9.568 -0.2961 -0.2479 -1.7599
25322SOL     OW77406   3.665   1.957   4.442  0.3853  0.0887  0.4506
25322SOL    HW177407   3.709   1.930   4.362 -0.2259  0.8749 -0.1784
25322SOL    HW277408   3.637   1.875   4.483  2.5173 -0.4421  0.9631
25323SOL     OW77409   2.986   4.809   7.308  0.5386  0.2816  0.7672
25323SOL    HW177410   2.993   4.835   7.216  1.4566  0.3992  0.8618
25323SOL    HW277411   3.075   4.783   7.333  0.1754 -0.3898  1.4376
25324SOL     OW77412   3.232   3.172   2.444 -0.2152  0.2776 -0.4146
25324SOL    HW177413   3.242   3.143   2.535  1.0127 -0.5701 -0.7973
25324SOL    HW277414   3.169   3.244   2.449  0.1241  0.5087  1.1636
25325SOL     OW77415   7.748   1.533  11.856  0.3021 -0.1860 -0.2340
25325SOL    HW177416   7.713   1.468  11.795  2.1323  0.0678 -1.6550
25325SOL    HW277417   7.671   1.570  11.899 -0.8472 -2.4625 -0.2306
25326SOL     OW77418   3.377   7.051  10.907  0.1746 -0.1793  0.1792
25326SOL    HW177419   3.381   6.967  10.953 -0.4739  0.0063  0.5749
25326SOL    HW277420   3.299   7.045  10.852  0.1185  0.1702  0.2179
25327SOL     OW77421   1.038   5.505  10.346  0.2464  0.6501  0.1511
25327SOL    HW177422   1.127   5.490  10.375  1.2547  1.1036 -2.4348
25327SOL    HW277423   0.995   5.549  10.420  1.4626 -1.5121  2.2601
25328SOL     OW77424   2.593   1.045   9.224  0.0731  0.1814  0.2057
25328SOL    HW177425   2.579   0.999   9.307  1.1079 -0.4860  0.0233
25328SOL    HW277426   2.541   0.996   9.160 -0.4502  0.4914  0.3877
25329SOL     OW77427   2.407   6.082  11.181 -0.2892 -0.1109 -0.3402
25329SOL    HW177428   2.487   6.101  11.132 -0.2402 -3.0664 -1.6121
25329SOL    HW277429   2.415   6.135  11.260  2.2096  0.7751 -1.0679
25330SOL     OW77430   7.576   4.616   3.599 -0.0396  0.2792 -0.0236
25330SOL    HW177431   7.662   4.577   3.582  0.1199  0.4748  0.3493
25330SOL    HW277432   7.586   4.663   3.682 -0.1426  1.3809 -0.6134
25331SOL     OW77433   5.451   5.408   9.751  0.4185 -0.1786 -0.3424
25331SOL    HW177434   5.438   5.501   9.730 -0.3045  0.1542  1.3721
25331SOL    HW277435   5.413   5.398   9.838  0.4993 -2.0973 -0.4830
25332SOL     OW77436   5.751   3.237   4.403  0.6317  0.1648  0.2821
25332SOL    HW177437   5.767   3.331   4.394 -0.1721  0.2781 -0.0991
25332SOL    HW277438   5.712   3.212   4.319  2.1822 -0.8113 -0.1884
25333SOL     OW77439   5.952   6.322   7.791  0.1586 -0.0507  0.6109
25333SOL    HW177440   5.945   6.289   7.880  0.9873  0.3939  0.8497
25333SOL    HW277441   5.967   6.244   7.737 -1.7440 -0.4941  0.6509
25334SOL     OW77442   2.793   5.322   7.718 -0.0131 -0.2309 -0.4213
25334SOL    HW177443   2.776   5.404   7.763 -1.4700  0.3400 -1.9045
25334SOL    HW277444   2.797   5.345   7.625 -0.6755 -1.8369 -0.8992
25335SOL     OW77445   5.668   6.267   5.572  0.0860  0.1105  0.1964
25335SOL    HW177446   5.708   6.329   5.510 -0.9276 -0.5573 -1.1767
25335SOL    HW277447   5.597   6.316   5.613  0.1233  0.2611  0.0807
25336SOL     OW77448   3.724   6.818  11.045  0.5194 -0.1823  0.3181
25336SOL    HW177449   3.795   6.789  10.987  2.3046 -1.1088  2.8276
25336SOL    HW277450   3.720   6.913  11.031  1.3483 -0.2963 -0.8369
25337SOL     OW77451   1.504   1.414  11.572  0.5085 -0.2221 -0.0643
25337SOL    HW177452   1.498   1.474  11.497  1.3831 -0.2346 -0.1487
25337SOL    HW277453   1.413   1.405  11.602  0.4007  1.4603  0.2092
25338SOL     OW77454   5.316   6.290   5.902  0.1997 -0.6160 -0.4072
25338SOL    HW177455   5.408   6.313   5.918  0.2014 -0.6497 -0.3693
25338SOL    HW277456   5.270   6.317   5.982  0.2797 -1.2010 -0.1630
25339SOL     OW77457   6.166   6.686   4.644  0.4154 -0.0245 -0.0325
25339SOL    HW177458   6.224   6.754   4.678  0.2324 -0.0883  0.4144
25339SOL    HW277459   6.170   6.616   4.710  0.5270 -0.4025 -0.4392
25340SOL     OW77460   3.647   1.815   7.438  0.2539  1.0759  0.3800
25340SOL    HW177461   3.682   1.900   7.413  2.1788 -0.0190 -0.9471
25340SOL    HW277462   3.697   1.790   7.515  0.4722  0.6944  0.1201
25341SOL     OW77463   4.038   0.736   7.203  0.6019  0.2681 -0.2535
25341SOL    HW177464   4.012   0.813   7.254  0.6695  0.0798  0.0711
25341SOL    HW277465   3.956   0.694   7.179  0.5852 -0.5977  1.1881
25342SOL     OW77466   5.173   2.548   1.268 -0.5354 -0.6173  0.4345
25342SOL    HW177467   5.198   2.585   1.184  1.3660  1.3994  1.7921
25342SOL    HW277468   5.089   2.505   1.251 -0.9727  1.0464 -2.1244
25343SOL     OW77469   4.063   2.136   1.722  0.2661 -0.2199  0.2293
25343SOL    HW177470   4.099   2.157   1.636 -1.1118 -1.8539 -0.8269
25343SOL    HW277471   4.125   2.074   1.759  1.3039  1.1234  0.8289
25344SOL     OW77472   2.159   2.524   3.564  0.5923  0.2287 -0.1689
25344SOL    HW177473   2.214   2.503   3.488 -0.5423  1.1221 -1.2803
25344SOL    HW277474   2.105   2.598   3.535 -0.7760 -0.2294  1.0752
25345SOL     OW77475   7.795   4.317  11.754  0.4321  0.5015  0.1643
25345SOL    HW177476   7.750   4.358  11.828 -0.5628 -0.4053  0.0753
25345SOL    HW277477   7.773   4.224  11.760  0.3797  0.3971 -1.2250
25346SOL     OW77478   2.436   3.751   6.316 -0.9426  0.0500 -0.5991
25346SOL    HW177479   2.515   3.711   6.353 -1.2792  1.1216  1.4641
25346SOL    HW277480   2.386   3.678   6.281 -0.7711 -1.1658  1.5007
25347SOL     OW77481   4.275   3.457   1.907  0.7549 -0.1172 -0.1189
25347SOL    HW177482   4.213   3.462   1.980  0.5721  0.8997 -0.3290
25347SOL    HW277483   4.343   3.521   1.928 -0.0018  1.1743 -1.4729
25348SOL     OW77484   2.790   3.406   4.211 -0.8450  0.0881 -0.4094
25348SOL    HW177485   2.825   3.406   4.122  0.2835  2.3759 -0.0175
25348SOL    HW277486   2.814   3.320   4.246  1.7059  0.4207 -1.1894
25349SOL     OW77487   3.038   4.064   8.335  0.2005  0.4026  0.4056
25349SOL    HW177488   3.090   3.985   8.317  1.1964  0.6537  1.9450
25349SOL    HW277489   3.079   4.131   8.281 -0.7402 -0.1234 -1.0219
25350SOL     OW77490   4.206   0.446   8.126  0.9048  0.5390  0.0259
25350SOL    HW177491   4.147   0.457   8.201  1.3986 -1.7295  0.8268
25350SOL    HW277492   4.241   0.533   8.110 -1.5810  1.6968  0.4055
25351SOL     OW77493   1.977   6.490   0.538 -0.2712 -0.1159  0.8729
25351SOL    HW177494   2.043   6.518   0.475  0.9804 -2.1047  1.2127
25351SOL    HW277495   1.930   6.419   0.493  0.0263 -0.9303  1.8230
25352SOL     OW77496   4.262   5.102   7.405 -0.3177 -0.0765 -0.5826
25352SOL    HW177497   4.249   5.023   7.353  0.9609 -1.2494  0.7989
25352SOL    HW277498   4.339   5.144   7.367 -0.3324 -0.0887 -0.6254
25353SOL     OW77499   7.908   4.158   2.993  0.0989  0.4024 -0.1086
25353SOL    HW177500   8.001   4.147   2.971 -0.1858  0.7850 -1.5921
25353SOL    HW277501   7.880   4.234   2.942 -0.8013  0.8903  1.0825
25354SOL     OW77502   0.219   6.314  10.039 -0.4821  0.1424 -0.0972
25354SOL    HW177503   0.257   6.401  10.031  0.4179 -0.0181  1.8034
25354SOL    HW277504   0.125   6.327  10.029 -0.3000  1.1990 -0.5586
25355SOL     OW77505   0.493   3.423   2.919  0.3451  0.6096 -0.4094
25355SOL    HW177506   0.568   3.385   2.964 -1.1839  0.3631  2.1226
25355SOL    HW277507   0.519   3.514   2.902  1.8681  0.0462 -1.3244
25356SOL     OW77508   5.700   4.681   7.009  0.1112  0.1758 -0.3219
25356SOL    HW177509   5.693   4.603   6.954 -0.3175 -0.8437  1.1090
25356SOL    HW277510   5.788   4.675   7.047  0.2716  0.6781 -0.6074
25357SOL     OW77511   3.172   7.187   8.437 -0.2969 -0.0027  0.4498
25357SOL    HW177512   3.230   7.191   8.361  1.0419  1.4023  1.4695
25357SOL    HW277513   3.223   7.228   8.508 -1.3458 -1.5835  2.2119
25358SOL     OW77514   5.708   7.633  12.088  0.2636 -0.6760 -0.1079
25358SOL    HW177515   5.760   7.606  12.012  0.8421 -1.5501  0.5836
25358SOL    HW277516   5.712   7.559  12.147 -3.0406 -1.4191 -0.6359
25359SOL     OW77517   1.980   4.798   5.367  0.2018 -0.5088  0.4096
25359SOL    HW177518   1.928   4.863   5.414  0.9131  1.3912 -1.3224
25359SOL    HW277519   1.944   4.798   5.278  2.3701  0.0326 -0.5301
25360SOL     OW77520   0.070   6.858  11.619 -0.4218  0.9215  0.2612
25360SOL    HW177521   0.143   6.798  11.632  0.1185  1.5640  0.2103
25360SOL    HW277522   0.027   6.827  11.539  0.1623  0.9171 -0.0536
25361SOL     OW77523   5.958   7.816  10.846  0.4057  0.4381 -0.2785
25361SOL    HW177524   5.869   7.844  10.868  0.3061  1.1247 -1.4766
25361SOL    HW277525   5.997   7.793  10.930 -0.5067  1.3099  0.4138
25362SOL     OW77526   0.254   6.055   5.840 -0.0589  0.5002 -0.4460
25362SOL    HW177527   0.341   6.063   5.881 -0.5579  0.0548  0.7503
25362SOL    HW277528   0.235   6.143   5.808  0.4270  0.8343  0.1461
25363SOL     OW77529   6.782   1.668   6.371  0.0063 -0.2057  0.3073
25363SOL    HW177530   6.821   1.607   6.309  2.1425  1.1665  0.1872
25363SOL    HW277531   6.807   1.755   6.339 -4.8689  1.0855 -0.9173
25364SOL     OW77532   1.269   1.964   9.239 -0.1117  0.2948  0.4786
25364SOL    HW177533   1.315   1.974   9.323  2.2997  2.8992 -0.9909
25364SOL    HW277534   1.229   2.049   9.223 -0.7339 -0.2397 -0.9192
25365SOL     OW77535   2.177   6.317   3.222 -0.3232 -0.2860 -0.2594
25365SOL    HW177536   2.226   6.398   3.237 -0.1613 -0.3804 -0.2818
25365SOL    HW277537   2.186   6.268   3.304  1.2161 -1.1523 -0.9113
25366SOL     OW77538   1.485   5.516   6.278 -0.2302  0.1130 -0.5820
25366SOL    HW177539   1.522   5.561   6.354  1.0866  0.0002 -1.1175
25366SOL    HW277540   1.558   5.464   6.244 -1.6854 -2.5353  0.0637
25367SOL     OW77541   1.576   1.006   8.704 -0.2040  0.3526  0.1483
25367SOL    HW177542   1.540   1.087   8.740  2.2223  2.0970 -1.0081
25367SOL    HW277543   1.564   1.014   8.609 -1.8000 -1.7031  0.1057
25368SOL     OW77544   5.894   6.358   2.443  0.2805 -0.4490 -0.6762
25368SOL    HW177545   5.851   6.369   2.358  0.2069 -1.0016 -0.7150
25368SOL    HW277546   5.847   6.418   2.501 -0.0651 -0.5072 -0.8895
25369SOL     OW77547   5.352   3.379   0.809  0.2968  0.1829  0.0658
25369SOL    HW177548   5.407   3.300   0.808 -0.5461 -0.4359  0.9779
25369SOL    HW277549   5.395   3.437   0.872  2.0147  1.3099 -2.0147
25370SOL     OW77550   2.873   7.666   3.473  0.2155 -0.1834 -0.1656
25370SOL    HW177551   2.959   7.682   3.511 -1.0361 -1.1557  3.4524
25370SOL    HW277552   2.877   7.576   3.440 -0.2300 -1.4949  3.0118
25371SOL     OW77553   2.733   0.689   1.368  0.1630  0.1306  0.0326
25371SOL    HW177554   2.806   0.630   1.346 -0.3969 -0.0217 -1.5726
25371SOL    HW277555   2.667   0.631   1.405 -1.1681 -0.7503 -3.3031
25372SOL     OW77556   6.976   3.047   0.934  0.0322  0.3396  0.1299
25372SOL    HW177557   6.894   3.040   0.982 -0.3953 -0.1881 -0.6667
25372SOL    HW277558   7.041   3.008   0.993 -0.5096 -0.4234  0.2404
25373SOL     OW77559   1.376   6.734  11.873  0.3222  0.3655  0.2247
25373SOL    HW177560   1.375   6.677  11.796 -0.2819 -0.4409  0.8132
25373SOL    HW277561   1.353   6.677  11.946 -0.8449  1.4582  0.7646
25374SOL     OW77562   0.164   2.141   2.796 -0.1984 -0.3177  0.4663
25374SOL    HW177563   0.197   2.089   2.723 -0.6818  0.2979 -0.1975
25374SOL    HW277564   0.092   2.089   2.831 -0.3029 -0.3681  0.1786
25375SOL     OW77565   0.919   4.319   7.896 -0.1406 -0.3739 -0.4946
25375SOL    HW177566   0.957   4.262   7.962  0.9595  1.4250  0.4779
25375SOL    HW277567   0.983   4.321   7.825  0.6799  1.0308  0.2539
25376SOL     OW77568   0.583   1.324   5.406 -0.0247 -0.6677 -1.1007
25376SOL    HW177569   0.600   1.254   5.469  0.1189  0.4384  0.1105
25376SOL    HW277570   0.531   1.388   5.454 -0.0666  0.1175 -2.1602
25377SOL     OW77571   7.655   2.962   8.188  0.1462  0.0528 -0.4116
25377SOL    HW177572   7.691   2.894   8.245  1.7156 -1.8340 -3.4095
25377SOL    HW277573   7.712   3.038   8.203  0.0953 -0.1434  0.9542
25378SOL     OW77574   4.263   4.366  10.665 -0.3771 -0.2297  0.1496
25378SOL    HW177575   4.284   4.299  10.600  1.7741 -0.4529  0.9825
25378SOL    HW277576   4.232   4.441  10.614  0.6168 -0.6304 -1.0922
25379SOL     OW77577   3.307   7.405   7.776  0.1776 -0.2101  0.2480
25379SOL    HW177578   3.360   7.379   7.701 -2.5014 -0.3538 -1.7345
25379SOL    HW277579   3.325   7.499   7.786  0.4164 -0.1463 -0.7023
25380SOL     OW77580   6.062   4.857   0.266  0.1411  0.4635  0.5114
25380SOL    HW177581   6.029   4.768   0.273  0.0733  0.5481  1.3928
25380SOL    HW277582   6.129   4.863   0.334  1.7402  0.4062 -0.9906
25381SOL     OW77583   6.003   1.551   2.241 -0.0631  0.2007 -0.3095
25381SOL    HW177584   5.985   1.479   2.180  0.7362  1.3947 -2.0468
25381SOL    HW277585   6.098   1.563   2.237 -0.0160  0.4343  1.0539
25382SOL     OW77586   7.972   4.650   6.213 -0.1735  0.4584 -0.4965
25382SOL    HW177587   8.004   4.649   6.304 -0.2297  0.3730 -0.4767
25382SOL    HW277588   7.884   4.611   6.219  0.2275 -0.5100 -0.7340
25383SOL     OW77589   0.851   5.197   4.917 -0.1787 -0.3348  0.0321
25383SOL    HW177590   0.825   5.128   4.856 -1.4314  0.3699 -0.2738
25383SOL    HW277591   0.832   5.161   5.004 -2.4378  0.1799 -0.1754
25384SOL     OW77592   2.808   7.014   8.214 -0.9109 -0.1765  0.2890
25384SOL    HW177593   2.865   7.082   8.178  0.1933 -0.8684  0.6512
25384SOL    HW277594   2.836   6.934   8.170 -2.6120 -0.3390 -0.5902
25385SOL     OW77595   2.051   3.856   4.400 -0.2815 -0.0945 -0.3182
25385SOL    HW177596   2.134   3.817   4.375 -0.0032  0.2429  0.0762
25385SOL    HW277597   2.060   3.949   4.376 -0.3195  0.0640  0.2654
25386SOL     OW77598   6.387   3.677   1.136  0.2643 -0.8400  0.3948
25386SOL    HW177599   6.331   3.726   1.076 -0.1751  0.4281  1.7548
25386SOL    HW277600   6.326   3.636   1.197  0.7384  0.6628  1.9676
25387SOL     OW77601   0.804   3.295   4.545  0.3472 -0.1593  0.5597
25387SOL    HW177602   0.744   3.264   4.614  0.5163  0.2047  0.8691
25387SOL    HW277603   0.815   3.388   4.563  1.7484 -0.4097  1.0682
25388SOL     OW77604   6.281   0.319   5.057 -0.2223 -0.0391  0.0468
25388SOL    HW177605   6.221   0.321   4.983 -0.0135  0.5991 -0.1074
25388SOL    HW277606   6.325   0.404   5.056 -0.8575  0.3378  1.4312
25389SOL     OW77607   1.320   6.384   3.381 -0.2272 -0.0450  0.2332
25389SOL    HW177608   1.394   6.429   3.421  2.2603 -1.1290 -2.6939
25389SOL    HW277609   1.309   6.304   3.433  1.1721 -0.1956  0.3346
25390SOL     OW77610   6.516   7.330   1.587  0.6653 -0.0461 -0.1101
25390SOL    HW177611   6.538   7.309   1.677  1.5297  0.4817 -0.1869
25390SOL    HW277612   6.532   7.249   1.538  0.4519 -0.2519  0.1567
25391SOL     OW77613   3.952   7.829   1.290  0.0806 -0.0687 -0.1603
25391SOL    HW177614   4.009   7.817   1.214 -0.0924  0.4542 -0.3754
25391SOL    HW277615   3.969   7.752   1.345 -0.4584 -0.9191 -1.1537
25392SOL     OW77616   0.364   7.246   9.948 -0.2478  0.2466 -0.2042
25392SOL    HW177617   0.281   7.204   9.929  0.7531 -1.7807 -0.3506
25392SOL    HW277618   0.381   7.302   9.872 -2.4466  2.4680  0.7783
25393SOL     OW77619   5.754   4.864   9.605 -0.2286 -0.1852 -0.0483
25393SOL    HW177620   5.691   4.801   9.641 -0.3714  0.3641  0.6927
25393SOL    HW277621   5.715   4.891   9.522 -1.9093  1.4822  1.2056
25394SOL     OW77622   4.080   7.366   3.841 -0.0206 -0.3183 -0.5998
25394SOL    HW177623   4.004   7.346   3.896  1.4200 -2.3929  0.7427
25394SOL    HW277624   4.148   7.393   3.903  0.1735  2.4610 -1.8467
25395SOL     OW77625   0.302   5.100   1.937 -0.1650 -0.3538 -0.4652
25395SOL    HW177626   0.283   5.108   2.030  0.2767 -1.3930 -0.2731
25395SOL    HW277627   0.336   5.186   1.912 -1.3117  0.2704  0.0744
25396SOL     OW77628   6.236   7.679   3.242  0.6310  0.6395  0.3765
25396SOL    HW177629   6.220   7.760   3.289 -1.0270  1.2186 -1.0671
25396SOL    HW277630   6.273   7.707   3.158 -0.1131 -0.0559 -0.2049
25397SOL     OW77631   2.084   6.460   1.358  0.1531 -0.2538  0.0052
25397SOL    HW177632   2.091   6.373   1.319  1.2705 -0.5588  0.8336
25397SOL    HW277633   2.024   6.448   1.432 -1.3844  0.1650 -1.1438
25398SOL     OW77634   1.001   1.407  10.242 -0.1217 -0.3781  0.0194
25398SOL    HW177635   0.975   1.333  10.298 -2.8593 -1.8660 -2.8927
25398SOL    HW277636   1.073   1.373  10.190  2.3841  0.9873  2.3547
25399SOL     OW77637   6.998   1.286   6.234  0.7496  0.0830  0.6244
25399SOL    HW177638   7.034   1.373   6.220 -1.8071  0.9753 -1.0086
25399SOL    HW277639   7.041   1.230   6.170  1.2566  0.4737  0.6240
25400SOL     OW77640   3.427   7.958  11.666 -0.2994 -0.2158  0.3667
25400SOL    HW177641   3.416   7.962  11.571 -1.5400 -1.5849  0.4085
25400SOL    HW277642   3.357   8.012  11.701 -0.9376 -1.1097  0.5070
25401SOL     OW77643   5.238   0.618  11.177 -0.3952  0.3285 -0.1498
25401SOL    HW177644   5.189   0.539  11.201  0.5957 -1.1463 -2.5450
25401SOL    HW277645   5.239   0.671  11.256 -1.9729 -1.6060  1.2701
25402SOL     OW77646   5.400   0.860   1.728 -0.0755 -0.0991 -0.1937
25402SOL    HW177647   5.318   0.877   1.682 -0.7621 -2.1167  0.1842
25402SOL    HW277648   5.410   0.933   1.789 -2.9001 -1.0042  1.5125
25403SOL     OW77649   4.184   0.583   0.744  0.2179 -0.0386  0.3586
25403SOL    HW177650   4.243   0.534   0.802  0.1247 -0.2025  0.3151
25403SOL    HW277651   4.196   0.544   0.658  0.8707  0.6601  0.1186
25404SOL     OW77652   5.944   5.645   8.185  0.4858  0.3090 -0.0925
25404SOL    HW177653   5.910   5.732   8.205  1.6616  0.7234  0.1632
25404SOL    HW277654   5.867   5.595   8.156 -0.7149  0.6184  2.3555
25405SOL     OW77655   3.611   1.271  10.765 -0.0030 -0.1800 -0.1989
25405SOL    HW177656   3.528   1.311  10.791  0.1192  0.8305 -1.2947
25405SOL    HW277657   3.599   1.248  10.672  1.0480  0.3006 -0.4733
25406SOL     OW77658   2.859   5.328   1.520  0.2091 -0.1308  0.0613
25406SOL    HW177659   2.874   5.264   1.589 -3.0978  0.6367  1.6896
25406SOL    HW277660   2.863   5.277   1.439  1.1606 -1.6522  1.0117
25407SOL     OW77661   3.712   4.946   4.881 -0.2175 -0.4564 -0.1496
25407SOL    HW177662   3.670   4.975   4.961  1.9090 -0.5548  1.0932
25407SOL    HW277663   3.698   4.851   4.879  1.4658 -0.7840  1.2794
25408SOL     OW77664   1.218   6.064   2.457 -0.4832 -0.4993 -0.2236
25408SOL    HW177665   1.271   6.141   2.436 -0.9299  0.2379  1.1964
25408SOL    HW277666   1.166   6.090   2.533 -3.4711 -0.9376 -1.9539
25409SOL     OW77667   2.138   4.992   8.503 -0.0495 -0.3765 -0.5967
25409SOL    HW177668   2.071   5.055   8.476 -1.4196 -1.0936  0.9891
25409SOL    HW277669   2.109   4.909   8.466  0.4071 -0.5572 -0.5556
25410SOL     OW77670   5.392   1.200  12.176  0.6720  0.3058 -0.2803
25410SOL    HW177671   5.393   1.158  12.262  0.0067  2.4191  0.8269
25410SOL    HW277672   5.303   1.233  12.167  1.0903  1.2498 -1.1687
25411SOL     OW77673   6.628   5.990  11.543 -0.1046 -0.1749 -0.5081
25411SOL    HW177674   6.599   6.016  11.455  1.3241 -0.1581 -1.0114
25411SOL    HW277675   6.696   6.054  11.565 -0.9247  0.2538  0.9357
25412SOL     OW77676   0.647   5.068   5.954  0.7229  0.4606 -0.3323
25412SOL    HW177677   0.571   5.018   5.924  1.8307 -1.5858  0.1007
25412SOL    HW277678   0.680   5.111   5.875  0.3908 -0.3991 -0.9530
25413SOL     OW77679   0.331   3.085   4.960  0.1741  0.3801  0.1291
25413SOL    HW177680   0.384   3.046   4.891  0.0360  0.7959 -0.2103
25413SOL    HW277681   0.288   3.160   4.919 -0.2759  0.3519  0.5354
25414SOL     OW77682   6.531   4.872   0.572 -0.0992 -0.1592  0.2603
25414SOL    HW177683   6.627   4.877   0.576 -0.1805  0.3981  2.0572
25414SOL    HW277684   6.500   4.949   0.619 -1.4380 -0.9343  0.7003
25415SOL     OW77685   0.290   0.636   4.379 -0.0982  0.2317  0.5484
25415SOL    HW177686   0.238   0.558   4.396  1.0702 -0.2120  2.3766
25415SOL    HW277687   0.381   0.607   4.389  0.3722  1.7316  0.8991
25416SOL     OW77688   4.525   7.236   4.364  0.5183 -0.2531 -0.4475
25416SOL    HW177689   4.528   7.190   4.280 -0.3800  1.0852 -1.2632
25416SOL    HW277690   4.589   7.307   4.354 -0.7604  0.9205 -0.6804
25417SOL     OW77691   3.112   1.737   8.430 -0.2414  0.1015  0.4636
25417SOL    HW177692   3.191   1.769   8.386 -1.5369  2.1159 -0.5824
25417SOL    HW277693   3.134   1.739   8.523  1.1416  0.0103  0.1621
25418SOL     OW77694   4.033   1.600   4.473 -0.8299  0.0834  0.0428
25418SOL    HW177695   4.059   1.691   4.485 -0.6866  0.0193  0.2081
25418SOL    HW277696   4.042   1.585   4.379 -0.4819  0.1243  0.0690
25419SOL     OW77697   1.968   1.758   2.560  0.1897 -0.8773  0.6197
25419SOL    HW177698   2.029   1.727   2.493  0.2831  0.6955 -0.0659
25419SOL    HW277699   2.009   1.837   2.595 -1.1289 -0.1604  0.6120
25420SOL     OW77700   3.007   6.641   1.044 -0.0339 -0.1955 -0.3609
25420SOL    HW177701   3.054   6.680   1.118 -0.6109  0.5413 -0.3694
25420SOL    HW277702   3.076   6.602   0.990  0.4150 -0.5461  0.4423
25421SOL     OW77703   1.573   5.423   5.098 -0.1476  0.3086  0.0798
25421SOL    HW177704   1.490   5.470   5.092  0.7838  1.8572 -1.6359
25421SOL    HW277705   1.638   5.491   5.117  0.7125 -0.9473  2.0108
25422SOL     OW77706   3.206   6.651   5.083 -0.2150 -0.1500 -0.1881
25422SOL    HW177707   3.300   6.664   5.095 -0.0115 -2.0469  0.4539
25422SOL    HW277708   3.180   6.590   5.152 -1.7703 -0.2841 -0.8412
25423SOL     OW77709   5.395   1.258  11.066 -0.4966 -0.3876 -0.6067
25423SOL    HW177710   5.485   1.236  11.090 -0.6086 -0.1880  0.0143
25423SOL    HW277711   5.396   1.264  10.970  1.1528  3.7414 -0.5183
25424SOL     OW77712   4.304   2.588  12.144  0.0940 -0.2086 -0.2287
25424SOL    HW177713   4.231   2.646  12.126  1.3175  2.4723  2.5720
25424SOL    HW277714   4.277   2.538  12.221 -0.3260 -2.3817 -1.6923
25425SOL     OW77715   5.584   2.711   2.094 -0.6570  0.0382  0.3445
25425SOL    HW177716   5.635   2.684   2.171 -1.3096  0.8469  1.0886
25425SOL    HW277717   5.625   2.665   2.021 -0.5942 -1.4873  1.2915
25426SOL     OW77718   4.722   5.291   9.816  0.7220 -0.1134 -0.6123
25426SOL    HW177719   4.750   5.286   9.725  2.0357 -0.4076 -0.2173
25426SOL    HW277720   4.712   5.385   9.832 -0.2881 -0.0944 -1.2621
25427SOL     OW77721   4.058   0.797   1.721 -0.2814  0.1037 -0.3547
25427SOL    HW177722   4.000   0.848   1.777  1.2994  0.4098  1.0721
25427SOL    HW277723   4.068   0.713   1.766 -0.4579 -0.3533 -1.1436
25428SOL     OW77724   3.944   4.343  11.540 -0.4030 -0.0814  0.3228
25428SOL    HW177725   3.938   4.291  11.620 -0.7740 -1.3620 -0.4982
25428SOL    HW277726   3.922   4.432  11.567  1.9728  0.0428  2.1175
25429SOL     OW77727   1.276   7.775  12.322  0.0739 -0.1418  0.0801
25429SOL    HW177728   1.318   7.861  12.327 -0.1253 -0.0297 -0.1827
25429SOL    HW277729   1.274   7.755  12.229  0.2621 -0.5022  0.1523
25430SOL     OW77730   7.678   4.122   9.350 -0.0657  0.3537  0.7087
25430SOL    HW177731   7.585   4.109   9.336 -0.0184 -1.2445  1.6220
25430SOL    HW277732   7.692   4.094   9.441  1.2615  0.7676  0.6504
25431SOL     OW77733   6.761   1.826   6.660  0.1167 -0.2375  0.3373
25431SOL    HW177734   6.778   1.882   6.584  0.4917  0.0252  0.6099
25431SOL    HW277735   6.848   1.810   6.697  0.0201 -1.0675  0.2162
25432SOL     OW77736   3.704   0.337   8.214  0.1468  0.0597 -0.0277
25432SOL    HW177737   3.776   0.382   8.171  0.3366  0.2493  0.4745
25432SOL    HW277738   3.632   0.400   8.213  0.0997  0.0033 -0.2099
25433SOL     OW77739   4.551   2.978   3.467 -0.0109 -0.2166 -0.1311
25433SOL    HW177740   4.527   2.916   3.398 -0.1560 -1.2665  0.8473
25433SOL    HW277741   4.576   2.924   3.541  0.2538  0.8975  0.6171
25434SOL     OW77742   7.863   2.112  10.344  0.4853  0.2430  0.4410
25434SOL    HW177743   7.864   2.201  10.379  2.1361  0.2629  0.4590
25434SOL    HW277744   7.953   2.080  10.358  0.8544 -0.2764 -2.4109
25435SOL     OW77745   7.032   5.091   8.113  0.2419 -0.6827 -0.0268
25435SOL    HW177746   7.107   5.105   8.170  0.0512 -1.6251  0.4736
25435SOL    HW277747   6.983   5.020   8.154 -0.6321 -0.4572 -0.6368
25436SOL     OW77748   0.979   6.681   7.350  0.2807  0.1171  0.0068
25436SOL    HW177749   1.029   6.762   7.345  0.7265 -0.2146 -1.6745
25436SOL    HW277750   0.914   6.689   7.280 -0.2281 -0.6080  0.3876
25437SOL     OW77751   0.953   5.221   6.196 -0.0341 -0.0637  0.2740
25437SOL    HW177752   0.971   5.312   6.219 -0.4686  0.0363  0.2416
25437SOL    HW277753   0.857   5.217   6.191 -0.0107 -0.4921  0.1527
25438SOL     OW77754   4.082   0.713   5.136  0.3880  0.1429  0.2148
25438SOL    HW177755   4.168   0.709   5.094  1.3459  1.0713  1.9470
25438SOL    HW277756   4.066   0.806   5.149  0.6738 -0.0908  2.8029
25439SOL     OW77757   3.529   0.081   3.082 -0.0935 -0.3646  0.5005
25439SOL    HW177758   3.476   0.071   3.003 -1.3621 -0.4012  1.3290
25439SOL    HW277759   3.466   0.090   3.153  1.0171  0.0869  1.4750
25440SOL     OW77760   4.670   5.663   3.290  0.9362 -0.1297  0.3238
25440SOL    HW177761   4.607   5.651   3.219  0.6656 -0.0101  0.5401
25440SOL    HW277762   4.677   5.576   3.330  0.0234  0.0963  1.0247
25441SOL     OW77763   2.234   2.529  10.054  0.0238 -0.4259 -0.3350
25441SOL    HW177764   2.220   2.516  10.148 -1.4711 -1.7613 -0.6920
25441SOL    HW277765   2.305   2.593  10.049  0.0918 -0.2665  1.6966
25442SOL     OW77766   5.825   0.167  12.296 -0.7577 -0.1588 -0.0702
25442SOL    HW177767   5.739   0.209  12.306 -0.6795  0.1331 -0.5750
25442SOL    HW277768   5.810   0.096  12.233 -0.6301 -0.1036 -0.1642
25443SOL     OW77769   6.904   3.968   4.931 -0.2699  0.4536  0.3205
25443SOL    HW177770   6.834   3.947   4.869 -0.1105  0.1857  0.2361
25443SOL    HW277771   6.947   3.885   4.949 -0.3334  0.5202  0.8163
25444SOL     OW77772   2.275   2.495  12.164 -0.2816  0.9397  0.2827
25444SOL    HW177773   2.291   2.433  12.093  2.4749  3.5994 -1.6496
25444SOL    HW277774   2.316   2.454  12.241  0.8290  0.0431 -0.7416
25445SOL     OW77775   4.321   5.210   9.332  0.3310 -0.6521  0.2022
25445SOL    HW177776   4.230   5.232   9.309  0.1273  0.1844  1.6667
25445SOL    HW277777   4.316   5.122   9.369 -0.1561 -0.0306  1.6806
25446SOL     OW77778   3.763   7.894   0.940  0.3094 -0.2828 -0.4411
25446SOL    HW177779   3.814   7.975   0.938  0.3052 -0.1762  1.6983
25446SOL    HW277780   3.698   7.905   0.870  0.5272  1.4126 -0.4234
25447SOL     OW77781   7.072   5.646   2.428 -0.6202 -0.1216  0.3196
25447SOL    HW177782   7.122   5.613   2.503 -1.8657 -1.2356  0.7027
25447SOL    HW277783   7.027   5.569   2.393 -2.1033  0.8111  0.0515
25448SOL     OW77784   1.205   5.536   6.760 -0.0196  0.3592  0.0334
25448SOL    HW177785   1.198   5.612   6.702 -1.1927 -0.2914 -0.7112
25448SOL    HW277786   1.235   5.465   6.703 -1.8662 -0.4619  0.0132
25449SOL     OW77787   0.132   0.581   0.309  0.5861  0.1229 -0.3867
25449SOL    HW177788   0.133   0.596   0.403  2.1239 -0.7532 -0.2250
25449SOL    HW277789   0.061   0.518   0.295  2.0709 -1.8632  0.5956
25450SOL     OW77790   0.416   1.998   0.235 -0.3770 -0.9232 -0.3138
25450SOL    HW177791   0.472   1.992   0.313 -0.5298  1.8762  0.1113
25450SOL    HW277792   0.362   1.919   0.239  2.2990 -2.8900  0.1808
25451SOL     OW77793   4.961   3.031   3.211  0.1425  0.6329 -0.0648
25451SOL    HW177794   5.017   3.085   3.267 -0.3454 -1.1877  2.3468
25451SOL    HW277795   4.878   3.079   3.206  0.4749  1.2293  0.0679
25452SOL     OW77796   3.347   1.092   9.025 -0.2748 -0.1648  0.5665
25452SOL    HW177797   3.319   1.001   9.015 -0.0053 -0.2415  0.4843
25452SOL    HW277798   3.273   1.137   9.066 -0.2022 -0.5365  1.1027
25453SOL     OW77799   2.903   3.335   6.783  0.3471 -0.0514 -0.5328
25453SOL    HW177800   2.876   3.262   6.728 -0.9301 -3.0936  3.5632
25453SOL    HW277801   2.995   3.317   6.804  1.0264  1.4437 -2.0084
25454SOL     OW77802   1.744   1.850   2.241 -0.4680  0.9016 -0.0779
25454SOL    HW177803   1.710   1.915   2.179  0.0446  0.6494 -0.6378
25454SOL    HW277804   1.704   1.873   2.325 -1.6955  0.8643 -0.6254
25455SOL     OW77805   7.236   1.750   5.617 -0.0671  0.5855 -0.0579
25455SOL    HW177806   7.313   1.696   5.635 -0.3475 -0.1965 -1.1110
25455SOL    HW277807   7.202   1.772   5.704  0.8346  0.2138  0.4080
25456SOL     OW77808   7.339   5.956   3.648  0.1329  0.0173  0.0156
25456SOL    HW177809   7.303   5.978   3.735 -0.9829  1.7209 -0.8314
25456SOL    HW277810   7.288   5.880   3.620 -1.4927  1.1786 -0.3026
25457SOL     OW77811   7.198   5.940   3.913 -0.5077 -0.1916 -0.6406
25457SOL    HW177812   7.125   5.881   3.897 -0.1478 -0.5254 -1.0871
25457SOL    HW277813   7.218   5.929   4.005 -0.7841 -0.3720 -0.6000
25458SOL     OW77814   0.168   0.835   1.501 -0.1332  0.1412 -0.6779
25458SOL    HW177815   0.259   0.862   1.495 -0.1087  0.7779  1.6346
25458SOL    HW277816   0.161   0.761   1.440  1.7604  0.4188 -1.3037
25459SOL     OW77817   0.499   7.651   5.552 -0.2391 -0.6916 -0.1683
25459SOL    HW177818   0.452   7.659   5.634  1.0094 -1.4769  0.6525
25459SOL    HW277819   0.591   7.664   5.575  0.1425 -0.9581 -1.4365
25460SOL     OW77820   1.362   2.706   7.132  0.2695  0.3632 -0.2098
25460SOL    HW177821   1.364   2.610   7.126  0.4948  0.2593  1.2412
25460SOL    HW277822   1.454   2.732   7.130  0.1911  0.6225 -1.2641
25461SOL     OW77823   4.275   2.426   3.246  0.0738  0.5390  0.2961
25461SOL    HW177824   4.298   2.384   3.329 -1.5364  0.4717  0.7328
25461SOL    HW277825   4.292   2.519   3.261  0.0865  0.4901  0.5915
25462SOL     OW77826   2.102   4.068   9.083  0.0787 -0.4078 -0.5644
25462SOL    HW177827   2.158   4.082   9.007  0.9454  0.8510  0.2777
25462SOL    HW277828   2.146   3.999   9.133 -1.6625 -2.9329 -2.2581
25463SOL     OW77829   2.023   2.568   2.448  0.4437 -0.5452 -0.1415
25463SOL    HW177830   2.059   2.649   2.483 -0.6108 -0.9714  2.1171
25463SOL    HW277831   1.950   2.596   2.393 -0.0394  0.0522  0.7802
25464SOL     OW77832   0.446   5.268  11.862 -0.3098  0.2975  0.1605
25464SOL    HW177833   0.495   5.190  11.885 -1.7222 -0.3599  1.1410
25464SOL    HW277834   0.484   5.337  11.917  1.6458  0.6112 -1.4693
25465SOL     OW77835   3.940   2.604   3.892  0.4256 -0.0403  0.7039
25465SOL    HW177836   4.007   2.603   3.824 -1.4956  0.8104 -1.3048
25465SOL    HW277837   3.885   2.528   3.874  0.0532  0.0248  1.5132
25466SOL     OW77838   6.796   3.933   6.961 -1.0535  0.7503 -0.3347
25466SOL    HW177839   6.864   3.875   6.926 -0.9331 -0.0142  1.0861
25466SOL    HW277840   6.829   3.959   7.047 -2.1130  1.1829 -0.0498
25467SOL     OW77841   4.762   5.549  12.069  0.1025 -0.3457 -0.1303
25467SOL    HW177842   4.719   5.628  12.035  0.8714 -0.6745 -2.0029
25467SOL    HW277843   4.697   5.480  12.060 -0.1169 -0.1863  0.2364
25468SOL     OW77844   7.201   2.054   4.816 -0.1731  0.3755  0.0602
25468SOL    HW177845   7.155   2.137   4.832  1.0345  1.1895 -0.4900
25468SOL    HW277846   7.292   2.080   4.805  0.4596 -1.2012  1.2306
25469SOL     OW77847   7.291   4.434   1.288  0.1836  0.4291  0.2707
25469SOL    HW177848   7.302   4.522   1.325  1.4679  0.1538  0.6041
25469SOL    HW277849   7.265   4.380   1.363  3.2181 -0.2195  1.0198
25470SOL     OW77850   4.482   4.472  10.809 -0.4773  0.1725  0.1248
25470SOL    HW177851   4.431   4.393  10.792 -0.8721  0.0448  1.6965
25470SOL    HW277852   4.415   4.541  10.816 -0.0185  1.2855 -3.8944
25471SOL     OW77853   1.707   3.154   5.436 -0.1957 -0.2041 -0.3731
25471SOL    HW177854   1.777   3.152   5.500 -1.1708 -0.7221  0.7231
25471SOL    HW277855   1.750   3.141   5.352  0.9379 -1.2126  0.3429
25472SOL     OW77856   2.402   3.609   1.874 -0.4137  0.1852  0.3221
25472SOL    HW177857   2.307   3.608   1.879 -0.5208  3.2568  1.0677
25472SOL    HW277858   2.421   3.638   1.784 -0.1452 -0.7643  0.0623
25473SOL     OW77859   1.457   5.483   8.947  0.5410 -0.7391 -0.0510
25473SOL    HW177860   1.461   5.420   8.875 -0.7171  0.0091 -0.8002
25473SOL    HW277861   1.378   5.459   8.995 -1.0670  1.4198 -1.4732
25474SOL     OW77862   4.636   2.736   2.796  0.1015  0.3821  0.0930
25474SOL    HW177863   4.638   2.830   2.808  1.7080  0.6406 -1.7931
25474SOL    HW277864   4.658   2.722   2.704  0.1143 -1.8548  0.3588
25475SOL     OW77865   5.805   6.486   5.725 -0.5897 -0.0366 -0.1310
25475SOL    HW177866   5.882   6.537   5.752 -0.5884 -0.5943  0.9643
25475SOL    HW277867   5.796   6.505   5.631  1.3857 -0.5896 -0.4897
25476SOL     OW77868   7.327   6.951   2.610  0.2104  0.5152 -0.2142
25476SOL    HW177869   7.403   7.005   2.634  1.0051 -2.1227  4.5301
25476SOL    HW277870   7.251   7.005   2.630  0.9818  0.5574  3.1288
25477SOL     OW77871   2.002   6.155   0.584  0.2628 -0.0648 -0.1196
25477SOL    HW177872   2.029   6.202   0.662 -0.5150 -0.8729  0.6543
25477SOL    HW277873   2.005   6.063   0.608 -1.0157 -0.2832 -0.6899
25478SOL     OW77874   5.060   2.163  10.470  0.0160  0.5086  0.2438
25478SOL    HW177875   5.109   2.117  10.538 -1.1636 -1.9566 -0.4505
25478SOL    HW277876   4.969   2.139  10.485 -0.3488  0.3770 -1.7979
25479SOL     OW77877   2.838   4.574   5.861  0.9074  0.1636 -0.5561
25479SOL    HW177878   2.865   4.603   5.773  0.7186 -0.4351 -0.8165
25479SOL    HW277879   2.750   4.538   5.848 -0.4836  2.8938  0.4191
25480SOL     OW77880   0.421   1.057   7.478  0.8091  0.3244  0.4853
25480SOL    HW177881   0.438   1.135   7.531  1.2055 -0.1134  1.0098
25480SOL    HW277882   0.342   1.019   7.517  1.3952 -0.2840  1.1088
25481SOL     OW77883   3.553   4.416   6.784 -0.0144 -0.1025  0.3998
25481SOL    HW177884   3.483   4.456   6.836  0.3017 -0.4949  1.1367
25481SOL    HW277885   3.513   4.399   6.698 -0.6319  0.2531  0.6150
25482SOL     OW77886   4.356   0.611   6.547 -0.0891  0.4441 -0.6978
25482SOL    HW177887   4.427   0.676   6.552  0.7221 -0.4502 -0.2322
25482SOL    HW277888   4.313   0.616   6.632  2.7757 -2.6469  1.1700
25483SOL     OW77889   5.815   1.717   5.379  0.0327  0.7573  0.1859
25483SOL    HW177890   5.755   1.742   5.450  0.6223  0.5294  0.7671
25483SOL    HW277891   5.765   1.735   5.299 -1.6899 -1.4297  0.6392
25484SOL     OW77892   2.309   7.630   6.041 -0.4931 -0.0287 -0.0833
25484SOL    HW177893   2.395   7.655   6.007 -1.6398  1.0650 -2.4369
25484SOL    HW277894   2.253   7.705   6.021 -2.0312 -0.7374  1.3136
25485SOL     OW77895   4.100   3.821   5.460  0.4270  0.1329 -0.6816
25485SOL    HW177896   4.195   3.831   5.459  0.6445 -1.5981 -1.5842
25485SOL    HW277897   4.067   3.909   5.478  2.1868  0.8079 -0.5370
25486SOL     OW77898   3.653   7.608   5.426  0.0842 -0.2669  0.5789
25486SOL    HW177899   3.660   7.620   5.521 -0.1645 -1.7110  0.8028
25486SOL    HW277900   3.640   7.514   5.415 -0.7103 -0.0130 -0.8472
25487SOL     OW77901   0.623   4.888  11.022 -0.5883  0.5544 -0.0132
25487SOL    HW177902   0.635   4.844  11.106  0.9195  0.5508 -0.2055
25487SOL    HW277903   0.624   4.981  11.042  1.3013  0.6023 -0.1625
25488SOL     OW77904   3.976   5.576   6.759  0.4304  0.4404  0.1392
25488SOL    HW177905   3.973   5.492   6.714 -0.7434  0.2838  0.4599
25488SOL    HW277906   4.068   5.600   6.761  0.6430 -0.2120 -1.1073
25489SOL     OW77907   1.852   1.404   8.695  0.0394  0.2815 -0.1164
25489SOL    HW177908   1.922   1.438   8.640  1.3425  0.4085  1.5383
25489SOL    HW277909   1.884   1.415   8.785 -1.3397 -1.3093  0.6356
25490SOL     OW77910   4.659   0.579  11.776  0.2010  0.5993  0.1095
25490SOL    HW177911   4.678   0.658  11.826  0.3725  0.7501 -0.1882
25490SOL    HW277912   4.744   0.551  11.741  0.0463  0.6511 -0.3186
25491SOL     OW77913   1.167   2.589   6.057 -0.4024 -0.1112 -0.3718
25491SOL    HW177914   1.116   2.518   6.097 -0.8524 -0.3551 -1.3576
25491SOL    HW277915   1.252   2.584   6.100 -0.7695 -0.5748  0.3218
25492SOL     OW77916   2.819   5.379   2.984  0.0056 -0.0116 -0.1808
25492SOL    HW177917   2.847   5.465   3.015  0.0085 -0.1015  0.0693
25492SOL    HW277918   2.760   5.398   2.912 -0.7773  0.2326  0.5061
25493SOL     OW77919   5.998   7.470   0.881 -0.3417  0.0368 -0.4239
25493SOL    HW177920   6.008   7.375   0.872 -1.9592 -0.3033  0.8458
25493SOL    HW277921   6.087   7.501   0.899  0.8820 -0.6926 -4.2604
25494SOL     OW77922   1.046   4.543   6.742  0.4247  0.7848 -0.4527
25494SOL    HW177923   1.114   4.544   6.675  1.3324  0.5340  0.4342
25494SOL    HW277924   1.019   4.635   6.750 -1.4028  0.5486 -2.7855
25495SOL     OW77925   1.441   5.999  12.247 -0.1499 -0.7879  0.3062
25495SOL    HW177926   1.357   6.046  12.242  0.3205 -0.0321 -1.0773
25495SOL    HW277927   1.437   5.951  12.330 -0.7728  1.4835  1.6977
25496SOL     OW77928   3.017   0.637   3.685 -0.4484  0.2855 -0.7026
25496SOL    HW177929   3.098   0.654   3.734  0.1946 -0.4597 -1.4912
25496SOL    HW277930   2.959   0.709   3.710  0.3580  0.6819  0.0820
25497SOL     OW77931   4.102   5.450   0.836 -0.6113  0.5222 -0.5169
25497SOL    HW177932   4.078   5.360   0.860 -2.0701  0.6829 -1.2278
25497SOL    HW277933   4.179   5.470   0.889  0.0837 -1.3474 -0.7453
25498SOL     OW77934   7.680   4.199   8.452  0.8244  1.0265 -0.4250
25498SOL    HW177935   7.693   4.265   8.521 -0.6877  0.4010  0.5111
25498SOL    HW277936   7.711   4.117   8.491  2.2534  1.0653 -1.4153
25499SOL     OW77937   2.120   5.351   3.544  0.1372 -0.0339 -0.2942
25499SOL    HW177938   2.198   5.321   3.497 -0.3330  0.4140 -1.3915
25499SOL    HW277939   2.137   5.444   3.561 -0.3999  0.2252 -1.0938
25500SOL     OW77940   0.830   7.492   6.524  0.1135  0.3631 -0.0377
25500SOL    HW177941   0.763   7.560   6.510 -0.0267 -0.2216 -2.6532
25500SOL    HW277942   0.804   7.421   6.465  1.2910 -1.2186  1.2849
25501SOL     OW77943   2.585   4.460   7.480 -0.1114 -0.3892 -0.0503
25501SOL    HW177944   2.640   4.426   7.550 -0.3937 -0.6419  0.0477
25501SOL    HW277945   2.646   4.507   7.423 -0.0059  0.5653  0.8151
25502SOL     OW77946   1.419   1.836   7.469 -0.5525  0.0324  0.1127
25502SOL    HW177947   1.352   1.775   7.499 -1.8073  0.3063 -1.9323
25502SOL    HW277948   1.370   1.906   7.426  0.9330  1.6845  0.9843
25503SOL     OW77949   0.007   0.707   0.074 -0.0672 -0.2053 -0.2129
25503SOL    HW177950  -0.015   0.692   0.166  0.8397 -1.0960 -0.1227
25503SOL    HW277951   0.073   0.776   0.076  1.2024 -1.3833 -0.0383
25504SOL     OW77952   3.065   4.749   3.434  0.3912  0.0098 -0.2561
25504SOL    HW177953   3.117   4.676   3.468  0.4545 -0.4142 -1.2172
25504SOL    HW277954   2.974   4.719   3.441  0.2305  0.7693  1.4672
25505SOL     OW77955   2.120   2.102   1.544 -0.0721  0.1155 -0.0542
25505SOL    HW177956   2.027   2.122   1.557 -0.1715 -0.3159 -0.0853
25505SOL    HW277957   2.139   2.131   1.455  0.1711  1.4732  0.4127
25506SOL     OW77958   3.717   3.720   7.017  0.4509  0.3624 -0.0000
25506SOL    HW177959   3.635   3.693   6.975 -0.1603  0.5775  1.0383
25506SOL    HW277960   3.768   3.759   6.946 -0.1508 -0.1931 -0.7539
25507SOL     OW77961   1.706   4.601   3.725  0.2496  0.0430 -1.1187
25507SOL    HW177962   1.621   4.622   3.685  0.3200  2.1607 -0.2622
25507SOL    HW277963   1.686   4.581   3.816  0.7536  2.1176 -0.4873
25508SOL     OW77964   1.078   0.821   1.748 -0.1125  0.4542  0.2164
25508SOL    HW177965   1.114   0.868   1.822  0.0387 -2.2520  2.0148
25508SOL    HW277966   1.130   0.740   1.743 -1.5535 -0.4645 -1.4297
25509SOL     OW77967   1.679   5.809  11.521  0.4975  0.4145  0.0098
25509SOL    HW177968   1.689   5.781  11.613  0.1600 -0.5743 -0.2346
25509SOL    HW277969   1.704   5.901  11.521  1.7562  0.1042  0.8627
25510SOL     OW77970   3.223   3.302   7.862  0.1223 -0.6238 -0.6132
25510SOL    HW177971   3.282   3.377   7.859 -0.2808 -0.3071 -0.7234
25510SOL    HW277972   3.262   3.243   7.926 -1.1323  1.0365  1.8181
25511SOL     OW77973   2.741   0.136  11.413 -0.0259  0.0993  0.0322
25511SOL    HW177974   2.820   0.150  11.361  1.2541  0.3714  1.9206
25511SOL    HW277975   2.714   0.047  11.393  2.0332 -0.7905  0.8636
25512SOL     OW77976   2.721   6.908   6.161 -0.0185 -0.2091 -0.0695
25512SOL    HW177977   2.797   6.861   6.126 -0.5853 -0.9189 -0.3751
25512SOL    HW277978   2.658   6.908   6.088 -0.2453  0.5302  0.1209
25513SOL     OW77979   1.487   4.796   0.490 -0.6752  0.3926 -0.3008
25513SOL    HW177980   1.518   4.857   0.424  0.5143  1.4805  1.1784
25513SOL    HW277981   1.526   4.827   0.572  0.0182 -2.3668  0.5343
25514SOL     OW77982   4.513   5.318  11.093 -0.4283 -0.7744  0.0066
25514SOL    HW177983   4.469   5.365  11.022 -0.8967 -0.5565  0.4325
25514SOL    HW277984   4.467   5.234  11.097 -2.1129  0.1511  1.6773
25515SOL     OW77985   6.112   0.936   9.194  0.1631 -0.2149 -0.1154
25515SOL    HW177986   6.109   0.997   9.268 -1.5575  0.3145 -0.5735
25515SOL    HW277987   6.140   0.853   9.233 -1.3528 -0.1197  1.2824
25516SOL     OW77988   4.807   1.232   1.229 -0.4960 -0.0372  0.4519
25516SOL    HW177989   4.737   1.294   1.250 -1.4746 -0.9359 -0.0477
25516SOL    HW277990   4.814   1.235   1.134 -0.3965 -0.5237  0.4434
25517SOL     OW77991   6.517   1.262  11.536 -0.5829 -0.4283  0.2596
25517SOL    HW177992   6.549   1.274  11.446 -1.3173  0.3581  0.0895
25517SOL    HW277993   6.564   1.185  11.568  0.2368 -0.2824 -0.5430
25518SOL     OW77994   5.088   1.700  10.561 -0.1362 -0.1324  0.3779
25518SOL    HW177995   4.995   1.708  10.541  0.3064  0.4323 -1.6216
25518SOL    HW277996   5.130   1.772  10.515  1.3466 -0.5338  1.0191
25519SOL     OW77997   7.144   6.401   7.466 -0.6321 -0.0420 -0.1125
25519SOL    HW177998   7.232   6.392   7.429 -0.9961 -0.9210 -0.7942
25519SOL    HW277999   7.091   6.436   7.395 -0.9764 -0.1518  0.0879
25520SOL     OW78000   2.532   3.046  11.777  0.4879  0.4841  0.1259
25520SOL    HW178001   2.461   3.077  11.721  0.5865  0.3666 -0.0680
25520SOL    HW278002   2.544   2.954  11.751  1.0385  0.6401 -0.1916
25521SOL     OW78003   4.330   5.398  10.157  0.4659 -0.1124  0.2242
25521SOL    HW178004   4.263   5.348  10.110  0.1833  0.4538  0.0202
25521SOL    HW278005   4.397   5.333  10.179  1.5258 -0.1196 -2.5556
25522SOL     OW78006   5.106   5.894   7.708  0.3151 -0.1361  0.0614
25522SOL    HW178007   5.022   5.851   7.724  0.4040  0.2121  1.6485
25522SOL    HW278008   5.166   5.823   7.686 -0.3766 -0.3867 -1.0707
25523SOL     OW78009   3.828   5.163  10.295 -0.4732 -0.0450 -0.4357
25523SOL    HW178010   3.742   5.189  10.264 -0.3544  3.4716  1.6641
25523SOL    HW278011   3.823   5.171  10.390  1.7969 -1.0267 -0.1658
25524SOL     OW78012   1.607   5.525   5.975 -0.0074  0.2058 -0.2677
25524SOL    HW178013   1.677   5.508   6.037 -0.3412  0.9022  0.3122
25524SOL    HW278014   1.586   5.618   5.986  0.5428  0.5981 -2.0690
25525SOL     OW78015   5.586   1.605   1.342 -0.0902  0.2613 -0.3988
25525SOL    HW178016   5.638   1.580   1.418 -1.5517 -0.2745  0.4567
25525SOL    HW278017   5.539   1.526   1.318 -0.3417  0.6722 -1.2991
25526SOL     OW78018   0.831   0.211   6.035  0.0682 -0.0586  0.0186
25526SOL    HW178019   0.779   0.286   6.060 -0.3700 -0.3853  0.0905
25526SOL    HW278020   0.781   0.135   6.065  1.0550 -0.3491  0.9995
25527SOL     OW78021   0.867   6.056   3.913  0.3542 -0.5212  0.0352
25527SOL    HW178022   0.858   5.969   3.875 -1.3606  0.0836 -1.1263
25527SOL    HW278023   0.811   6.112   3.857 -0.6110  0.8290  2.2013
25528SOL     OW78024   7.211   6.464   8.703 -0.1505  0.3712  0.3663
25528SOL    HW178025   7.239   6.533   8.642  1.1419  0.5406  1.1150
25528SOL    HW278026   7.138   6.503   8.751 -0.6197  0.5474 -0.4761
25529SOL     OW78027   4.308   7.542   6.239 -0.3527  0.0631 -0.0084
25529SOL    HW178028   4.293   7.627   6.196  2.8837  0.8215  0.1002
25529SOL    HW278029   4.269   7.553   6.326  1.0830  2.0359  0.4871
25530SOL     OW78030   5.599   2.444   8.583 -0.2749  0.0053  0.6561
25530SOL    HW178031   5.673   2.428   8.525 -2.6046 -0.4179 -2.4809
25530SOL    HW278032   5.607   2.536   8.607  1.5946 -0.2086  1.0456
25531SOL     OW78033   1.402   4.770   7.956  0.4259 -0.0741 -0.4521
25531SOL    HW178034   1.463   4.824   8.007  0.5244  0.3608 -1.0199
25531SOL    HW278035   1.450   4.748   7.876 -0.1229  0.2028 -0.8677
25532SOL     OW78036   3.596   3.936   9.688 -0.3184  0.1751  0.0363
25532SOL    HW178037   3.611   3.859   9.742 -0.7872  0.2809  0.3148
25532SOL    HW278038   3.504   3.930   9.661 -0.2357  0.4004 -0.3133
25533SOL     OW78039   3.027   7.169   1.731  0.4646 -0.4787  0.0160
25533SOL    HW178040   3.007   7.077   1.713  2.6411 -0.8756 -0.6756
25533SOL    HW278041   2.982   7.188   1.813  1.2961 -2.6659  1.0425
25534SOL     OW78042   4.963   1.619   7.073 -0.1530  0.0306 -0.0161
25534SOL    HW178043   4.935   1.707   7.095 -0.7779 -0.2255  0.2340
25534SOL    HW278044   4.900   1.588   7.008 -0.5481 -0.5963  0.6493
25535SOL     OW78045   2.244   3.264  11.771  0.5389 -0.5180  0.1344
25535SOL    HW178046   2.201   3.232  11.692 -1.8841 -0.3498  1.3178
25535SOL    HW278047   2.196   3.343  11.795  2.0897  0.2033  1.0718
25536SOL     OW78048   1.034   6.822   4.405 -0.2248 -0.5571  0.1163
25536SOL    HW178049   1.078   6.843   4.322  0.5726  1.6937  1.0536
25536SOL    HW278050   0.991   6.738   4.388  1.1536 -0.8954 -2.1001
25537SOL     OW78051   6.292   4.723   5.675 -0.2043 -0.0900  0.1148
25537SOL    HW178052   6.301   4.646   5.618  2.1076 -0.2434  0.6228
25537SOL    HW278053   6.235   4.694   5.746  1.5065 -1.7332  0.8807
25538SOL     OW78054   5.492   0.540  12.454  0.3506 -0.2156 -0.4608
25538SOL    HW178055   5.485   0.557  12.360  1.6502  1.6878 -0.2595
25538SOL    HW278056   5.452   0.617  12.495  0.8971 -0.4566  0.5438
25539SOL     OW78057   2.451   6.494  11.274  0.4862  0.6673 -0.5021
25539SOL    HW178058   2.419   6.425  11.332 -0.5296 -1.0676 -2.9705
25539SOL    HW278059   2.506   6.549  11.330 -1.2804 -0.2368  2.3272
25540SOL     OW78060   1.768   3.275  11.072  0.0692  0.1343 -0.4718
25540SOL    HW178061   1.836   3.229  11.024 -0.3195 -1.3837  0.3782
25540SOL    HW278062   1.701   3.209  11.089 -0.6574  1.0800  0.5254
25541SOL     OW78063   0.690   7.297   8.145  0.0216  0.1908  0.0667
25541SOL    HW178064   0.695   7.389   8.171 -0.0759  0.0710  0.5047
25541SOL    HW278065   0.688   7.248   8.227 -2.5834 -0.0911 -0.0698
25542SOL     OW78066   1.072   1.763  10.685 -0.1240  0.2825  0.0893
25542SOL    HW178067   1.010   1.749  10.757  0.5884 -0.3164  0.6092
25542SOL    HW278068   1.037   1.711  10.613 -0.1169 -0.2300  0.4479
25543SOL     OW78069   7.669   1.615   6.162 -0.6099  0.2135 -0.1264
25543SOL    HW178070   7.752   1.600   6.116 -1.1339 -0.6353 -0.8211
25543SOL    HW278071   7.655   1.709   6.155  1.4252  0.7757  2.0007
25544SOL     OW78072   7.717   4.779   0.397  0.3533 -0.1584 -0.3142
25544SOL    HW178073   7.748   4.841   0.331 -2.5307  0.9600 -0.7760
25544SOL    HW278074   7.735   4.693   0.360  1.6152  0.4121 -1.0909
25545SOL     OW78075   7.037   3.443   0.575  0.2489 -0.7391  0.7878
25545SOL    HW178076   7.052   3.361   0.621  0.6398 -0.6685  0.7911
25545SOL    HW278077   6.941   3.452   0.571  0.1645  0.2095  3.3076
25546SOL     OW78078   6.778   4.690   1.406  0.0772  1.0987  0.5177
25546SOL    HW178079   6.827   4.641   1.472 -1.7459 -1.2035  0.2704
25546SOL    HW278080   6.777   4.780   1.439  2.5869  0.8247  1.5579
25547SOL     OW78081   7.148   3.124   5.304 -0.3017  0.2426 -0.1336
25547SOL    HW178082   7.137   3.057   5.236  0.0344 -0.1862  0.2231
25547SOL    HW278083   7.080   3.105   5.368 -1.0085  1.0242 -0.6434
25548SOL     OW78084   6.209   5.480   7.060  0.2856  0.0371  0.0881
25548SOL    HW178085   6.115   5.482   7.082  0.0349 -1.7642 -0.6825
25548SOL    HW278086   6.213   5.440   6.974  1.5068  4.0473 -1.9425
25549SOL     OW78087   5.155   2.863   6.182 -0.6163 -0.1110  0.1403
25549SOL    HW178088   5.104   2.944   6.189 -1.0755 -0.4740  1.2899
25549SOL    HW278089   5.244   2.893   6.166 -0.8154  0.6291  0.3630
25550SOL     OW78090   6.025   3.014   6.296  0.3452  0.0970 -0.8261
25550SOL    HW178091   6.009   2.920   6.306 -0.2754  0.3272  0.6652
25550SOL    HW278092   5.993   3.034   6.208  0.7245 -1.1197 -1.2703
25551SOL     OW78093   7.628   4.486   3.041 -0.4569  0.7070 -0.3029
25551SOL    HW178094   7.629   4.581   3.044  1.8969  0.7408 -0.5643
25551SOL    HW278095   7.576   4.460   3.117 -2.5867  2.1611 -1.1787
25552SOL     OW78096   1.114   6.233   1.215  0.2508  0.7959 -0.4513
25552SOL    HW178097   1.158   6.184   1.145 -0.7517  0.3512 -0.7807
25552SOL    HW278098   1.159   6.318   1.216  1.1447  0.3462 -0.7393
25553SOL     OW78099   4.800   0.035   4.357  0.0548 -0.3080  0.2839
25553SOL    HW178100   4.738  -0.023   4.314  0.1044  0.6991 -1.2398
25553SOL    HW278101   4.868   0.050   4.291  1.1468 -0.2377  1.4074
25554SOL     OW78102   5.113   2.559  11.777  0.5907 -0.1374 -0.4972
25554SOL    HW178103   5.074   2.632  11.826  0.3418 -0.5331 -0.1008
25554SOL    HW278104   5.074   2.565  11.690 -0.3312 -0.5005 -0.1205
25555SOL     OW78105   3.712   1.572  10.052  0.3100 -0.3775 -0.2358
25555SOL    HW178106   3.783   1.614  10.002  1.3267  0.8255  2.0487
25555SOL    HW278107   3.696   1.632  10.125 -1.8358 -1.5324  0.3065
25556SOL     OW78108   4.702   5.763  11.205 -0.0826 -0.3256 -0.6014
25556SOL    HW178109   4.611   5.753  11.177 -0.5738  0.9619  0.3790
25556SOL    HW278110   4.714   5.858  11.212  1.3191 -0.4803 -0.6434
25557SOL     OW78111   6.720   0.891  12.084 -0.2233 -0.0688 -0.0520
25557SOL    HW178112   6.746   0.983  12.085 -0.4129 -0.0028  1.6308
25557SOL    HW278113   6.634   0.891  12.041 -0.0796  0.4968 -0.3523
25558SOL     OW78114   7.148   7.913   0.913  0.0259  0.0466  0.1465
25558SOL    HW178115   7.053   7.901   0.905 -0.2413  2.1926 -0.4298
25558SOL    HW278116   7.158   7.975   0.985  0.8417  1.4117 -1.1025
25559SOL     OW78117   0.515   7.676   6.959 -0.1011  0.1394 -0.8124
25559SOL    HW178118   0.483   7.765   6.973 -0.1745 -0.2829  2.4275
25559SOL    HW278119   0.436   7.624   6.943 -0.3828  0.2045  0.3116
25560SOL     OW78120   4.084   2.693   9.930 -0.6161  0.1284 -0.6946
25560SOL    HW178121   4.004   2.645   9.910 -1.3503  0.4485  1.2005
25560SOL    HW278122   4.155   2.638   9.897 -1.5924 -0.1194 -2.4968
25561SOL     OW78123   6.638   3.269   0.938 -0.3421  0.1079  0.0833
25561SOL    HW178124   6.624   3.262   0.844  1.1735 -0.2638 -0.1424
25561SOL    HW278125   6.557   3.306   0.972 -0.4079  1.5949 -1.5584
25562SOL     OW78126   0.214   5.674   4.607 -0.5707  0.3840  0.3383
25562SOL    HW178127   0.175   5.760   4.618  1.9494  1.6535  0.0592
25562SOL    HW278128   0.285   5.671   4.672  0.5121 -0.7507 -0.8352
25563SOL     OW78129   2.527   1.330   2.121 -0.3169 -0.1160  0.1035
25563SOL    HW178130   2.478   1.394   2.070  2.1657  1.5880 -0.3673
25563SOL    HW278131   2.478   1.322   2.203 -1.7147  0.9248 -0.5896
25564SOL     OW78132   0.979   4.147  11.872  0.4118 -0.5829  0.2962
25564SOL    HW178133   1.048   4.123  11.811 -0.2473 -0.2965 -0.5740
25564SOL    HW278134   0.928   4.067  11.883  1.0824 -0.9074  1.2479
25565SOL     OW78135   6.575   3.578   4.545 -0.3813 -0.1979  0.0251
25565SOL    HW178136   6.494   3.577   4.596  0.1124  1.9934  0.9902
25565SOL    HW278137   6.636   3.524   4.596 -0.8275 -0.7383 -0.0020
25566SOL     OW78138   7.708   1.942   1.568 -0.1067  0.6132  0.4429
25566SOL    HW178139   7.698   2.016   1.508  0.5961  0.4904  0.1676
25566SOL    HW278140   7.706   1.981   1.655 -0.8957  0.8202  0.3421
25567SOL     OW78141   1.637   6.590   2.972 -0.0294  0.2746  0.2466
25567SOL    HW178142   1.709   6.636   2.929  0.1429 -0.0110  0.2298
25567SOL    HW278143   1.640   6.501   2.937 -0.4668  0.2940  0.1572
25568SOL     OW78144   5.391   3.213   5.857 -0.6103 -0.1762 -0.2522
25568SOL    HW178145   5.426   3.263   5.783  1.2920 -1.3791 -0.2246
25568SOL    HW278146   5.336   3.146   5.817 -1.4918  0.5996 -0.3964
25569SOL     OW78147   0.755   3.313   3.009 -0.4521  0.0007 -0.0834
25569SOL    HW178148   0.763   3.293   3.102 -0.4328 -0.3657 -0.1616
25569SOL    HW278149   0.816   3.385   2.994 -0.0706 -0.2855  0.0796
25570SOL     OW78150   3.168   0.254   6.124 -0.3853 -0.5401  0.3741
25570SOL    HW178151   3.229   0.226   6.056 -0.4121 -0.1032  0.1677
25570SOL    HW278152   3.131   0.336   6.092  1.4735  1.0520  1.9678
25571SOL     OW78153   4.980   4.838   2.070  0.0280  0.5446 -0.0116
25571SOL    HW178154   4.968   4.786   1.991  0.7251  1.5166 -0.7796
25571SOL    HW278155   4.892   4.862   2.097 -0.4076 -1.8569  0.9685
25572SOL     OW78156   0.780   3.242   0.508  0.3229  0.0537 -0.0912
25572SOL    HW178157   0.789   3.160   0.558 -2.1056  0.0164  0.3984
25572SOL    HW278158   0.722   3.219   0.436 -1.4493  1.5949  0.7632
25573SOL     OW78159   5.099   1.637   1.362  0.4053  0.0276 -0.3996
25573SOL    HW178160   5.074   1.548   1.336 -0.1224 -0.2588  1.0018
25573SOL    HW278161   5.174   1.658   1.306  0.7612 -1.4405 -0.5268
25574SOL     OW78162   2.838   5.238   4.236  0.3400  0.1361  1.1954
25574SOL    HW178163   2.882   5.308   4.187 -0.1645 -0.6917 -0.5148
25574SOL    HW278164   2.905   5.171   4.248  0.3826  0.2098  1.3674
25575SOL     OW78165   3.970   4.652   9.667 -0.2324 -0.9436 -0.1644
25575SOL    HW178166   3.926   4.575   9.702 -0.4534 -0.4891  0.5938
25575SOL    HW278167   3.909   4.724   9.685  1.0600 -0.1865  1.5005
25576SOL     OW78168   6.917   1.694   4.977 -0.4449  0.3118  0.0841
25576SOL    HW178169   7.008   1.724   4.970 -0.1438 -0.2910  1.1487
25576SOL    HW278170   6.869   1.770   5.011 -0.6188  1.0543 -1.7108
25577SOL     OW78171   0.888   2.347   5.157 -0.1302  0.4912 -0.3417
25577SOL    HW178172   0.860   2.439   5.162  2.0457  1.2502 -0.8796
25577SOL    HW278173   0.924   2.328   5.244  0.1358  0.4172 -0.4654
25578SOL     OW78174   5.502   3.049   8.003  0.0865 -0.3995 -0.3354
25578SOL    HW178175   5.429   3.027   8.061 -0.0845 -0.7951 -0.6921
25578SOL    HW278176   5.466   3.111   7.939  0.4788  0.6736  0.4534
25579SOL     OW78177   6.230   5.669   5.274  0.2710  0.6017 -0.2769
25579SOL    HW178178   6.185   5.607   5.217  0.7505  1.0482 -1.1518
25579SOL    HW278179   6.319   5.674   5.239  0.3791  1.3902  0.0981
25580SOL     OW78180   0.639   1.722   9.470 -0.3347 -0.3092  0.0257
25580SOL    HW178181   0.679   1.801   9.435 -0.6852  0.0754  0.4851
25580SOL    HW278182   0.590   1.686   9.396  0.2522 -0.3936 -0.3362
25581SOL     OW78183   1.892   1.350   4.984 -0.0724 -0.2675  0.3459
25581SOL    HW178184   1.842   1.395   5.053  1.1038  0.8832  0.4751
25581SOL    HW278185   1.956   1.414   4.955 -0.1561 -0.9454 -1.4289
25582SOL     OW78186   2.488   2.127   2.813  0.2840 -0.5869 -0.2167
25582SOL    HW178187   2.462   2.035   2.819  0.8750 -0.8921 -1.9160
25582SOL    HW278188   2.441   2.170   2.885 -0.5734 -2.0677  0.1477
25583SOL     OW78189   3.721   6.164   6.971  0.1224  0.0330  0.3139
25583SOL    HW178190   3.663   6.235   7.000 -0.4375 -0.6694  0.9268
25583SOL    HW278191   3.735   6.182   6.878 -0.5827  0.5563  0.2997
25584SOL     OW78192   4.439   1.250   3.175  0.1198 -0.3467  0.0336
25584SOL    HW178193   4.467   1.292   3.257 -0.2824  1.3125 -0.6351
25584SOL    HW278194   4.345   1.237   3.186  0.1912 -0.8019  0.1168
25585SOL     OW78195   1.267   5.235   5.859 -0.2447  0.0704 -0.3138
25585SOL    HW178196   1.305   5.292   5.792  0.0255 -0.2390 -0.4295
25585SOL    HW278197   1.283   5.281   5.941  1.0067 -0.3627 -0.2879
25586SOL     OW78198   3.332   7.269   3.869 -0.1565  0.5738 -0.7127
25586SOL    HW178199   3.322   7.228   3.783  1.4484  0.8653 -1.0762
25586SOL    HW278200   3.407   7.327   3.859  1.2977 -0.7956  1.3861
25587SOL     OW78201   4.860   5.959   1.798 -0.1891  0.4248  0.2487
25587SOL    HW178202   4.870   6.049   1.768 -0.3592 -0.4691 -2.8507
25587SOL    HW278203   4.787   5.925   1.746 -0.2798 -1.4460  1.5207
25588SOL     OW78204   0.191   7.506   6.857  0.4448 -0.4774 -0.1359
25588SOL    HW178205   0.249   7.522   6.782 -0.6885 -0.2675 -0.9914
25588SOL    HW278206   0.204   7.414   6.879  0.3289 -0.7062 -0.9967
25589SOL     OW78207   5.740   7.925   6.398 -0.4825 -0.2386  0.2375
25589SOL    HW178208   5.688   7.859   6.444  0.8613 -0.4960  1.4858
25589SOL    HW278209   5.749   7.997   6.461  1.4654 -0.6287  0.4907
25590SOL     OW78210   6.389   6.976   8.179  0.2535  0.2447  0.4771
25590SOL    HW178211   6.374   6.942   8.091 -0.9663 -0.6955  1.0009
25590SOL    HW278212   6.362   7.068   8.174 -3.7286 -0.7093  0.7103
25591SOL     OW78213   1.554   2.977   8.061  0.1186 -0.3797 -0.2472
25591SOL    HW178214   1.515   2.908   8.114  0.8885 -0.6016  0.0472
25591SOL    HW278215   1.591   3.038   8.124 -1.3815  0.8290 -0.4735
25592SOL     OW78216   1.033   5.039   8.720 -0.4709 -0.3474  0.3341
25592SOL    HW178217   1.082   5.028   8.802  0.5328 -0.4484 -0.2621
25592SOL    HW278218   1.010   4.950   8.694  0.8919 -0.4827 -0.4763
25593SOL     OW78219   5.749   6.885  11.161  0.0390  0.1328 -0.4448
25593SOL    HW178220   5.674   6.826  11.155  0.8866 -0.9000 -1.0037
25593SOL    HW278221   5.719   6.954  11.220 -0.6317 -1.3449  1.0155
25594SOL     OW78222   2.289   5.927   9.863  0.3732 -0.3153 -0.0669
25594SOL    HW178223   2.198   5.905   9.881 -0.2007  0.5142 -1.7451
25594SOL    HW278224   2.327   5.845   9.830  0.6367 -1.0243  1.8792
25595SOL     OW78225   0.143   0.596  10.054 -0.1410  0.1832  0.5226
25595SOL    HW178226   0.103   0.637  10.132 -0.7134  0.4720  0.0846
25595SOL    HW278227   0.131   0.502  10.067  0.5546  0.1732  1.2010
25596SOL     OW78228   5.266   5.679   7.762  0.7285  0.0670  0.6557
25596SOL    HW178229   5.344   5.682   7.707  1.4132 -0.2565  1.5871
25596SOL    HW278230   5.263   5.589   7.795 -1.0403 -0.4719 -0.7390
25597SOL     OW78231   6.641   5.204   1.347  0.6920 -0.1465 -0.0200
25597SOL    HW178232   6.570   5.183   1.285 -1.2612  0.1443  1.9843
25597SOL    HW278233   6.648   5.299   1.344  0.1226 -0.0723  0.6372
25598SOL     OW78234   7.040   1.459   3.613 -0.2494 -0.0762 -0.4477
25598SOL    HW178235   7.118   1.489   3.659 -0.1089  0.7723 -1.1994
25598SOL    HW278236   7.059   1.369   3.589  1.3238  0.6830 -2.2910
25599SOL     OW78237   2.818   0.437   9.902  0.3967  0.4016  0.2080
25599SOL    HW178238   2.733   0.393   9.902  0.1282  0.9067 -0.1326
25599SOL    HW278239   2.808   0.508   9.838  0.5974  1.3818  1.2314
25600SOL     OW78240   3.585   5.138   4.751  0.5764 -0.0723  0.1466
25600SOL    HW178241   3.660   5.092   4.789  0.4429 -0.0720  0.4199
25600SOL    HW278242   3.543   5.073   4.695  0.8377 -0.0426 -0.0845
25601SOL     OW78243   5.106   6.002  11.230  0.0059  0.1523  0.1197
25601SOL    HW178244   5.200   5.981  11.231 -0.1033 -0.8021 -2.6242
25601SOL    HW278245   5.098   6.078  11.173 -0.9237 -0.0305 -0.0132
25602SOL     OW78246   5.729   1.148   5.804 -0.4182 -0.0656 -0.2857
25602SOL    HW178247   5.805   1.123   5.751  0.4434  1.3274  0.2103
25602SOL    HW278248   5.742   1.102   5.887  0.4327  0.9010  0.1430
25603SOL     OW78249   6.280   5.631   2.816 -0.1591  0.4510  0.3333
25603SOL    HW178250   6.324   5.611   2.733 -1.3327  0.9124 -0.4200
25603SOL    HW278251   6.212   5.693   2.793 -0.0681  1.1193  1.7700
25604SOL     OW78252   4.822   2.802   3.826 -0.1056  0.1131 -0.4229
25604SOL    HW178253   4.812   2.742   3.752 -0.8961 -0.0064 -0.2320
25604SOL    HW278254   4.757   2.772   3.890  1.2264 -0.4006  0.7402
25605SOL     OW78255   6.223   4.779   3.742 -0.0263  0.5906  0.2001
25605SOL    HW178256   6.187   4.846   3.684  1.0251 -0.5590 -1.8820
25605SOL    HW278257   6.178   4.699   3.717 -1.1747  0.4155  2.5746
25606SOL     OW78258   5.261   1.979   0.637 -0.5594 -0.0350  0.5044
25606SOL    HW178259   5.271   1.959   0.544 -2.6868  0.1118  0.1832
25606SOL    HW278260   5.303   2.064   0.649 -0.2426 -0.0729 -0.3085
25607SOL     OW78261   7.495   6.095   0.058 -0.7803  0.1339 -0.2266
25607SOL    HW178262   7.571   6.079   0.003 -0.4277  0.9396 -0.0004
25607SOL    HW278263   7.529   6.088   0.147 -1.3592 -1.2237 -0.1011
25608SOL     OW78264   1.158   5.217   5.318  0.0553 -0.7580  0.4289
25608SOL    HW178265   1.125   5.204   5.229  0.3995 -0.3233  0.2351
25608SOL    HW278266   1.103   5.286   5.355  2.1284  1.6576 -0.6883
25609SOL     OW78267   6.670   3.811   5.172  0.2847 -0.5417 -0.0515
25609SOL    HW178268   6.691   3.771   5.256  0.7714  0.5330  0.3490
25609SOL    HW278269   6.722   3.891   5.169 -1.6481  0.7752 -0.2668
25610SOL     OW78270   1.735   3.582   3.516  0.3386  0.3219  0.2814
25610SOL    HW178271   1.674   3.525   3.469  1.4208  1.2849 -2.5497
25610SOL    HW278272   1.683   3.623   3.585 -1.6152 -0.5776 -0.5929
25611SOL     OW78273   6.258   2.364   2.538 -0.3883  0.0233 -0.2134
25611SOL    HW178274   6.296   2.322   2.616  1.7121  2.5601  0.2523
25611SOL    HW278275   6.296   2.316   2.465  0.6453  0.0126  0.3099
25612SOL     OW78276   4.706   3.107   6.263 -0.4338 -0.1736 -0.4040
25612SOL    HW178277   4.665   3.179   6.312  0.2482 -0.2349  0.2688
25612SOL    HW278278   4.744   3.051   6.330 -1.5518 -1.5501 -0.8837
25613SOL     OW78279   2.235   1.899   8.918  0.5014 -0.0529 -0.0354
25613SOL    HW178280   2.143   1.923   8.909  0.5551  0.5697  1.0306
25613SOL    HW278281   2.254   1.908   9.011  1.3246 -1.3606 -0.0467
25614SOL     OW78282   3.369   7.103   1.643  0.1065  0.7144  0.3214
25614SOL    HW178283   3.396   7.173   1.703  0.6166 -0.2709  1.2890
25614SOL    HW278284   3.280   7.126   1.616  0.6180  2.2363 -0.1709
25615SOL     OW78285   6.270   4.505  12.358 -0.1379  0.2796  0.1833
25615SOL    HW178286   6.268   4.540  12.269 -2.6853 -1.6930 -0.6484
25615SOL    HW278287   6.313   4.421  12.350  1.8654  1.1185  1.3542
25616SOL     OW78288   6.604   0.469   4.048 -0.9994  0.1281 -0.2301
25616SOL    HW178289   6.536   0.445   4.110 -1.3172  1.2927 -0.0911
25616SOL    HW278290   6.642   0.550   4.084 -0.8584  0.5559 -1.2907
25617SOL     OW78291   6.532   0.090  11.252  0.6770  0.2621  0.5093
25617SOL    HW178292   6.487   0.005  11.242 -1.8066  1.6668 -1.4783
25617SOL    HW278293   6.595   0.091  11.180 -0.1479  0.5623 -0.2224
25618SOL     OW78294   2.645   7.905   2.195 -0.1472 -0.2915  0.2912
25618SOL    HW178295   2.661   7.860   2.278  0.1877  1.6038  1.3163
25618SOL    HW278296   2.553   7.888   2.175 -0.2550 -0.6822  1.0978
25619SOL     OW78297   7.200   1.345   2.740  0.2083 -0.0737  0.8305
25619SOL    HW178298   7.222   1.413   2.676  1.5914 -0.1733  1.1652
25619SOL    HW278299   7.219   1.385   2.824 -1.8646  0.1502  1.2297
25620SOL     OW78300   5.348   1.433  10.814  0.1333 -0.3738 -0.0134
25620SOL    HW178301   5.352   1.471  10.726  0.0239 -1.2149 -0.3931
25620SOL    HW278302   5.367   1.340  10.800 -0.3297 -0.5932  0.8005
25621SOL     OW78303   2.638   4.129   9.354 -0.0447 -0.1427 -0.0772
25621SOL    HW178304   2.659   4.122   9.261  1.5365 -0.4663  0.2679
25621SOL    HW278305   2.618   4.221   9.368 -0.2930 -0.0951 -0.7398
25622SOL     OW78306   0.977   6.072   1.880 -0.0078 -0.1662 -0.0572
25622SOL    HW178307   0.907   6.113   1.932  1.3174  1.4165  0.5814
25622SOL    HW278308   0.951   5.981   1.871 -1.5396  0.1097  1.2096
25623SOL     OW78309   5.027   0.738   4.972  0.1163 -0.2625 -0.0004
25623SOL    HW178310   5.109   0.770   5.010  0.0143  0.6773 -0.5414
25623SOL    HW278311   5.025   0.776   4.884 -0.5724 -0.8343 -0.2423
25624SOL     OW78312   3.590   0.125   7.230 -0.0037  0.1344 -0.3144
25624SOL    HW178313   3.600   0.207   7.182 -0.0522 -0.0349 -0.6127
25624SOL    HW278314   3.584   0.058   7.162  0.5057 -0.1667 -0.0616
25625SOL     OW78315   5.299   6.572   8.431 -0.6835 -0.5204  0.0738
25625SOL    HW178316   5.326   6.623   8.355 -2.1679  0.4192  0.1230
25625SOL    HW278317   5.377   6.564   8.484 -0.2362  1.1410 -0.2740
25626SOL     OW78318   6.614   3.424   2.598  0.9428 -0.0205 -0.0943
25626SOL    HW178319   6.580   3.357   2.656 -0.2860  0.8500  0.2193
25626SOL    HW278320   6.617   3.382   2.512 -1.4257 -0.0131 -0.2450
25627SOL     OW78321   3.710   0.383   5.352 -0.3917  0.2690 -0.0373
25627SOL    HW178322   3.790   0.392   5.405  0.7494  3.1124 -1.9736
25627SOL    HW278323   3.741   0.377   5.262 -2.3478 -0.1312 -0.7277
25628SOL     OW78324   3.405   2.320   6.059  0.1414 -0.0522  0.0400
25628SOL    HW178325   3.356   2.339   6.139  0.5604 -0.1185  0.3171
25628SOL    HW278326   3.463   2.247   6.083 -0.5270 -0.8263 -0.6404
25629SOL     OW78327   1.732   3.465   8.458  0.0671  0.4137 -0.1719
25629SOL    HW178328   1.689   3.459   8.543  0.1185  0.2304 -0.1567
25629SOL    HW278329   1.824   3.484   8.479  0.1792 -0.1211 -0.1654
25630SOL     OW78330   0.684   2.713   0.911  0.6200  0.3458  0.1460
25630SOL    HW178331   0.745   2.693   0.982  1.0419  1.2787  0.0550
25630SOL    HW278332   0.697   2.806   0.893  1.3253 -0.1011 -1.9292
25631SOL     OW78333   4.317   6.354   9.892 -0.5298  0.0648  0.2832
25631SOL    HW178334   4.267   6.413   9.836 -0.2475  1.1673  1.1481
25631SOL    HW278335   4.338   6.279   9.837 -0.1449  1.1711 -1.1073
25632SOL     OW78336   5.307   0.096   7.840  0.3122  0.4275  0.1044
25632SOL    HW178337   5.284   0.189   7.834  0.6083  0.4767 -0.3359
25632SOL    HW278338   5.273   0.068   7.924 -0.5443  0.7242 -0.1322
25633SOL     OW78339   4.034   2.617   6.279 -0.5913  0.0604 -0.3483
25633SOL    HW178340   4.126   2.641   6.291 -0.4660 -0.4761 -0.2280
25633SOL    HW278341   3.986   2.699   6.291 -0.1971  0.1864  0.4295
25634SOL     OW78342   2.065   2.513   1.169 -0.1605  0.6251 -0.2402
25634SOL    HW178343   2.001   2.515   1.239  1.0794  0.1351  0.9489
25634SOL    HW278344   2.018   2.478   1.094 -0.9510 -1.0242  0.9631
25635SOL     OW78345   3.160   7.532   7.211  0.3060 -0.2299 -0.2180
25635SOL    HW178346   3.135   7.567   7.125  2.2514  3.0239  0.3644
25635SOL    HW278347   3.245   7.491   7.195 -0.2250 -1.3865 -0.1599
25636SOL     OW78348   3.136   4.203   1.949 -0.7242 -0.0365 -0.2196
25636SOL    HW178349   3.221   4.247   1.957 -0.1601 -0.7465 -1.8678
25636SOL    HW278350   3.128   4.151   2.029  1.0522 -1.0289 -0.6347
25637SOL     OW78351   5.957   3.685  11.584  0.3215 -0.6518  0.0139
25637SOL    HW178352   5.926   3.763  11.628  0.6595 -0.4220 -0.1466
25637SOL    HW278353   5.959   3.708  11.491 -2.3985 -1.8093 -0.4054
25638SOL     OW78354   7.727   5.251  12.170 -0.2626  0.1881 -0.5534
25638SOL    HW178355   7.663   5.197  12.216 -0.7211  0.9781 -0.2397
25638SOL    HW278356   7.809   5.203  12.177 -1.1023 -1.6586 -2.3592
25639SOL     OW78357   2.689   3.850   7.104  0.8761 -0.1838  0.2645
25639SOL    HW178358   2.680   3.759   7.075 -2.8283 -1.0380  3.2234
25639SOL    HW278359   2.619   3.897   7.058  1.6800  0.8457  0.0392
25640SOL     OW78360   7.607   1.625   7.785 -0.0691 -0.3015  0.0519
25640SOL    HW178361   7.590   1.547   7.838  2.1653 -0.0524  1.2290
25640SOL    HW278362   7.579   1.698   7.840  0.6073 -0.1265  0.1632
25641SOL     OW78363   3.822   5.111   0.515 -0.1824  0.6068  0.0533
25641SOL    HW178364   3.806   5.095   0.608 -1.7989 -0.1780 -0.3245
25641SOL    HW278365   3.813   5.025   0.474 -0.2379  1.0740 -0.9341
25642SOL     OW78366   3.707   1.846   9.524 -0.1528 -0.0626 -0.5547
25642SOL    HW178367   3.650   1.771   9.542  1.3995 -0.9189  1.1674
25642SOL    HW278368   3.792   1.807   9.503  0.1050  1.1924 -1.9670
25643SOL     OW78369   7.452   3.627   6.896  0.2551  0.8303 -0.0772
25643SOL    HW178370   7.524   3.673   6.940 -1.0954  2.3735  0.6367
25643SOL    HW278371   7.411   3.575   6.964  1.6047 -1.3375 -0.8283
25644SOL     OW78372   1.047   1.876   5.324  0.0179 -0.2852  0.1869
25644SOL    HW178373   0.961   1.835   5.329 -1.1137  1.9705  0.3290
25644SOL    HW278374   1.052   1.910   5.235  1.2948 -1.3473 -0.2018
25645SOL     OW78375   1.065   7.972   7.534  0.2352 -0.3634  0.5557
25645SOL    HW178376   1.073   8.006   7.623 -0.7722 -0.2906  0.6361
25645SOL    HW278377   0.992   7.911   7.538 -0.4437  0.3422 -0.4012
25646SOL     OW78378   7.284   4.506   7.487  0.6783 -0.6936 -0.0056
25646SOL    HW178379   7.262   4.577   7.547  0.0638  0.9279 -2.0378
25646SOL    HW278380   7.207   4.449   7.486 -0.4133  0.7486 -1.2472
25647SOL     OW78381   4.527   1.403   2.930  1.2035  0.2662 -0.5617
25647SOL    HW178382   4.474   1.349   2.988  3.3079 -1.1354  0.1602
25647SOL    HW278383   4.585   1.451   2.988  1.8122  0.5841 -1.4068
25648SOL     OW78384   4.695   7.482  11.594 -0.3251  0.0127 -0.1495
25648SOL    HW178385   4.606   7.477  11.629 -0.3987  0.6464 -0.2390
25648SOL    HW278386   4.727   7.392  11.599 -1.1642 -0.3264 -0.6488
25649SOL     OW78387   6.352   5.744   5.649 -0.0714 -0.0913 -0.4551
25649SOL    HW178388   6.323   5.834   5.634 -0.5197 -0.2776 -0.7153
25649SOL    HW278389   6.275   5.691   5.630 -0.4473 -0.4021  1.6593
25650SOL     OW78390   3.413   4.452   6.565  0.3162  0.5232  0.5732
25650SOL    HW178391   3.430   4.543   6.591  1.7986  0.9000 -1.4200
25650SOL    HW278392   3.370   4.459   6.480  2.2689 -0.5816 -0.5840
25651SOL     OW78393   5.540   6.777   7.077  0.1660 -0.0819 -0.3756
25651SOL    HW178394   5.454   6.751   7.045  0.4307 -0.7028 -0.6124
25651SOL    HW278395   5.523   6.847   7.140 -0.4728  0.1351 -0.7815
25652SOL     OW78396   6.253   0.568   5.536  0.4821 -0.3693  0.2023
25652SOL    HW178397   6.245   0.475   5.514 -0.4513 -0.4236  0.7178
25652SOL    HW278398   6.345   0.579   5.558  1.2183 -0.5841 -2.4074
25653SOL     OW78399   7.690   7.110  10.298  0.3965  0.5234  0.1500
25653SOL    HW178400   7.689   7.028  10.249 -2.8318  0.9661 -0.7820
25653SOL    HW278401   7.709   7.084  10.388  0.7154 -1.0656 -0.3477
25654SOL     OW78402   2.116   7.184   3.147  0.0323 -0.0601  0.4661
25654SOL    HW178403   2.124   7.246   3.220 -1.1861 -0.7158  1.2076
25654SOL    HW278404   2.103   7.238   3.070 -2.3148  0.6529  1.2824
25655SOL     OW78405   0.276   7.267   0.297 -0.0074 -0.5825 -0.3823
25655SOL    HW178406   0.248   7.225   0.215  1.2940 -1.3680 -0.4519
25655SOL    HW278407   0.361   7.306   0.276  0.4336 -0.9562  0.6388
25656SOL     OW78408   5.275   2.633   3.118 -0.1073 -0.1367  0.5712
25656SOL    HW178409   5.353   2.670   3.159  0.2038 -0.5895  0.3875
25656SOL    HW278410   5.205   2.695   3.141 -0.1485 -0.8684  2.5918
25657SOL     OW78411   2.679   3.548   9.153 -0.2037  0.4145  0.4891
25657SOL    HW178412   2.649   3.553   9.243 -0.1671 -0.2169  0.5400
25657SOL    HW278413   2.765   3.589   9.154  0.1589 -0.3541  0.9067
25658SOL     OW78414   5.066   3.310  11.586  0.3018  0.1468  0.3224
25658SOL    HW178415   5.135   3.246  11.605  0.6124  0.2283 -0.5363
25658SOL    HW278416   5.077   3.378  11.652  0.8589  0.0159  0.3620
25659SOL     OW78417   4.234   0.451   5.644  0.1782  0.0105  0.9138
25659SOL    HW178418   4.306   0.506   5.675  0.6643  0.0127 -0.1536
25659SOL    HW278419   4.205   0.493   5.563 -0.6079 -0.3476  1.0018
25660SOL     OW78420   3.650   7.898   9.636  0.1838  0.0404  0.2447
25660SOL    HW178421   3.727   7.955   9.630 -0.8339  1.9027  2.9680
25660SOL    HW278422   3.669   7.840   9.709 -0.6437 -0.0836  0.3690
25661SOL     OW78423   7.377   4.424   8.554  0.1813  0.2201 -0.1482
25661SOL    HW178424   7.287   4.452   8.571  0.1477  0.6446 -0.9494
25661SOL    HW278425   7.419   4.425   8.640 -0.7624 -0.6907  0.3451
25662SOL     OW78426   4.236   5.311   8.859 -0.5126 -0.1661 -0.1245
25662SOL    HW178427   4.258   5.243   8.923 -1.1615  0.3569  0.6730
25662SOL    HW278428   4.161   5.277   8.812 -0.5587 -0.1925 -0.0322
25663SOL     OW78429   1.406   6.892  12.093 -0.2648 -0.8440 -0.5685
25663SOL    HW178430   1.386   6.832  12.021 -1.4220 -0.0670 -0.9252
25663SOL    HW278431   1.366   6.975  12.067  1.1059  0.0256  0.0247
25664SOL     OW78432   5.020   4.755   2.922  0.5192  0.2731 -0.3305
25664SOL    HW178433   5.114   4.771   2.927  0.5059  0.3813 -0.4186
25664SOL    HW278434   4.981   4.834   2.960  0.5026 -0.6191  1.5885
25665SOL     OW78435   4.719   6.624   9.144  0.6312 -0.0518 -0.3193
25665SOL    HW178436   4.715   6.535   9.110  1.4151  0.3519 -1.5257
25665SOL    HW278437   4.632   6.660   9.130  0.5959 -0.3041 -0.7363
25666SOL     OW78438   5.914   0.731   3.617 -0.6625  0.0715  0.1950
25666SOL    HW178439   5.967   0.765   3.688 -0.3913  0.3814 -0.1553
25666SOL    HW278440   5.824   0.731   3.651 -0.2441 -2.4103  1.5665
25667SOL     OW78441   1.499   7.308   9.362 -0.0779  0.0190  0.0810
25667SOL    HW178442   1.494   7.311   9.266 -0.0176 -0.3759  0.0668
25667SOL    HW278443   1.536   7.222   9.382 -1.9061 -0.6847  0.5502
25668SOL     OW78444   7.336   2.237   8.601 -0.5904 -0.1713  0.0272
25668SOL    HW178445   7.274   2.164   8.610 -1.5401  0.6640  0.4532
25668SOL    HW278446   7.281   2.313   8.586  0.4194  0.3914 -0.9490
25669SOL     OW78447   6.634   4.799   7.444 -0.3233 -0.3201  0.1257
25669SOL    HW178448   6.578   4.777   7.370 -1.5276  1.0179  0.5872
25669SOL    HW278449   6.710   4.844   7.405 -0.8858  0.2603 -0.3274
25670SOL     OW78450   0.539   2.409   6.874 -0.2849 -0.6378 -0.1698
25670SOL    HW178451   0.449   2.386   6.851 -1.4063  1.5423  1.6787
25670SOL    HW278452   0.558   2.355   6.951 -0.9788  0.6674  0.9551
25671SOL     OW78453   1.418   0.254   8.107 -0.1064 -0.1961 -0.1167
25671SOL    HW178454   1.327   0.229   8.089  0.1536  0.1714 -2.3273
25671SOL    HW278455   1.468   0.175   8.090  0.1188  0.0403 -0.5754
25672SOL     OW78456   7.203   5.560   3.831  0.1185  0.3861  0.4134
25672SOL    HW178457   7.121   5.536   3.790  1.1817 -0.5971 -1.2309
25672SOL    HW278458   7.177   5.608   3.910 -2.0013  0.2490 -0.1446
25673SOL     OW78459   5.203   6.488   8.126 -0.0238 -0.1853 -0.5853
25673SOL    HW178460   5.198   6.428   8.200  1.7964  0.7177  0.3203
25673SOL    HW278461   5.126   6.466   8.072 -1.6028 -0.6165  1.7077
25674SOL     OW78462   3.098   6.632  10.658  0.0681  0.2271 -0.0162
25674SOL    HW178463   3.184   6.595  10.641 -0.4953 -0.7212 -0.8865
25674SOL    HW278464   3.081   6.612  10.750  1.2308  1.4276  0.4956
25675SOL     OW78465   4.741   5.653   7.319  0.1302  0.0524 -0.3027
25675SOL    HW178466   4.722   5.734   7.367 -0.0766  0.3957 -0.9448
25675SOL    HW278467   4.733   5.678   7.227 -3.5248 -1.5195 -0.5758
25676SOL     OW78468   6.640   7.899  11.799 -0.2939 -0.2117  0.2852
25676SOL    HW178469   6.612   7.987  11.826  0.0430  0.2184 -0.7355
25676SOL    HW278470   6.719   7.883  11.851 -0.3724  0.0733  0.4966
25677SOL     OW78471   6.340   3.254   6.047 -0.4194 -0.3145 -0.0269
25677SOL    HW178472   6.319   3.275   6.138  0.2472 -0.5532  0.1874
25677SOL    HW278473   6.265   3.203   6.016  0.2251 -1.9701  1.0116
25678SOL     OW78474   7.817   2.136  12.390 -0.1828 -0.0505 -0.3055
25678SOL    HW178475   7.856   2.049  12.394 -0.6739 -0.2663 -0.0598
25678SOL    HW278476   7.786   2.152  12.479 -1.6560 -0.3655 -0.7259
25679SOL     OW78477   3.179   1.315   2.008  0.3154  0.4909  0.2259
25679SOL    HW178478   3.125   1.317   1.929 -0.1817  0.1942  0.5470
25679SOL    HW278479   3.259   1.361   1.984 -0.7566  2.4746  0.2317
25680SOL     OW78480   5.523   6.675   5.576 -0.5946  0.4641  0.0047
25680SOL    HW178481   5.495   6.592   5.537  0.2917 -0.1843  0.6921
25680SOL    HW278482   5.536   6.734   5.501 -1.3468  0.0269 -0.4789
25681SOL     OW78483   1.177   3.775  11.848 -0.3544  0.0818  0.0491
25681SOL    HW178484   1.195   3.718  11.923 -0.3789 -1.0930 -0.8069
25681SOL    HW278485   1.144   3.716  11.780 -0.4452  1.1336 -0.8525
25682SOL     OW78486   5.707   2.224   7.392  0.0769  0.0823 -0.0755
25682SOL    HW178487   5.801   2.219   7.411 -0.3085 -2.3333  1.5874
25682SOL    HW278488   5.702   2.210   7.297  1.3266 -2.8944  0.1758
25683SOL     OW78489   0.184   7.389   9.547  0.1259  0.2633  0.0625
25683SOL    HW178490   0.096   7.388   9.586  0.6300 -0.4795  1.2413
25683SOL    HW278491   0.168   7.391   9.453 -1.1617  0.2888  0.2584
25684SOL     OW78492   5.643   2.888  11.333  0.7578 -0.5784 -0.3069
25684SOL    HW178493   5.596   2.813  11.368 -0.8744  0.0355 -1.1100
25684SOL    HW278494   5.681   2.857  11.251  1.1821 -0.8684 -0.0083
25685SOL     OW78495   1.751   1.567   7.668  0.2053 -0.5070 -0.3416
25685SOL    HW178496   1.691   1.640   7.682  1.2197  0.6131 -1.5398
25685SOL    HW278497   1.723   1.500   7.731 -1.6482  0.3456 -0.2093
25686SOL     OW78498   0.621   1.227   3.920  0.7168  0.6629  0.0720
25686SOL    HW178499   0.588   1.315   3.940 -2.1194 -0.0740 -0.8708
25686SOL    HW278500   0.674   1.239   3.841  0.9344  1.6057  0.3436
25687SOL     OW78501   4.396   5.604   3.966 -0.4217  0.2004  0.7536
25687SOL    HW178502   4.369   5.608   3.874  0.9902 -1.3639  0.2180
25687SOL    HW278503   4.483   5.643   3.967  0.1117 -0.9588  1.1666
25688SOL     OW78504   0.601   3.937   3.424 -0.7103 -0.3242  0.1397
25688SOL    HW178505   0.673   3.876   3.442  0.3916  0.7375 -0.4994
25688SOL    HW278506   0.525   3.899   3.468  0.1317 -1.7263  0.4286
25689SOL     OW78507   1.308   7.122   2.456  0.0353 -0.1370 -0.0711
25689SOL    HW178508   1.287   7.029   2.452 -1.8635  0.2718 -3.1715
25689SOL    HW278509   1.404   7.125   2.446 -0.0073 -1.7578 -1.5449
25690SOL     OW78510   2.502   0.975  11.948 -0.2153 -0.7299  0.1125
25690SOL    HW178511   2.426   0.977  12.006  1.5173  1.7500  2.5378
25690SOL    HW278512   2.560   0.910  11.987 -0.6132 -1.9348 -1.2054
25691SOL     OW78513   7.257   1.162   2.456  0.3006  0.1400 -0.0576
25691SOL    HW178514   7.303   1.175   2.373  0.0563 -1.0023 -0.3822
25691SOL    HW278515   7.188   1.229   2.456  0.3651  0.2145 -0.7273
25692SOL     OW78516   5.153   7.906   1.277  0.7426  0.7215  0.2436
25692SOL    HW178517   5.220   7.857   1.325 -0.1586 -0.3956  0.4079
25692SOL    HW278518   5.112   7.963   1.343  0.5513  0.3239  0.4740
25693SOL     OW78519   0.982   4.133   9.768  0.3993 -0.0726 -0.3671
25693SOL    HW178520   0.925   4.198   9.808  0.2830  0.4536 -1.3458
25693SOL    HW278521   1.064   4.139   9.816  0.3631  0.7577 -0.4085
25694SOL     OW78522   1.618   0.210   7.743 -0.7116  0.7506  0.5916
25694SOL    HW178523   1.593   0.118   7.732 -4.0339  1.4104  1.4522
25694SOL    HW278524   1.645   0.238   7.655 -3.6679 -0.0685 -0.7011
25695SOL     OW78525   3.141   3.844   8.758 -0.1003  0.2173  0.4670
25695SOL    HW178526   3.111   3.815   8.844 -0.5383  0.8097  0.5258
25695SOL    HW278527   3.149   3.939   8.766 -0.2289  0.2891 -0.1702
25696SOL     OW78528   4.608   0.834   3.540 -0.1872 -0.2465 -0.7532
25696SOL    HW178529   4.574   0.748   3.564  0.1754 -0.7207 -1.8982
25696SOL    HW278530   4.700   0.819   3.519  0.2439  0.6686  0.3181
25697SOL     OW78531   2.009   2.088  10.661  0.3656 -0.1271 -0.0889
25697SOL    HW178532   2.078   2.150  10.685  0.6165  0.5187 -2.2038
25697SOL    HW278533   1.941   2.143  10.623  0.3001 -1.0601 -1.3969
25698SOL     OW78534   3.307   2.692   5.527 -0.1989  0.0275 -0.5650
25698SOL    HW178535   3.358   2.649   5.597 -1.1644 -2.1110 -1.1128
25698SOL    HW278536   3.311   2.785   5.550  1.3462 -0.3739  1.1207
25699SOL     OW78537   0.567   6.667   8.883 -0.0335  0.0532 -0.6549
25699SOL    HW178538   0.529   6.580   8.896 -0.7096  0.4957  0.5369
25699SOL    HW278539   0.492   6.724   8.871  0.2694  0.7995  0.7651
25700SOL     OW78540   4.816   3.297   0.739 -0.0185  0.2133 -0.0650
25700SOL    HW178541   4.751   3.283   0.670  0.6283  2.2556 -1.1798
25700SOL    HW278542   4.763   3.317   0.817 -0.7536  0.2303 -0.5539
25701SOL     OW78543   3.546   7.526   9.057  0.2067  0.7193  0.0903
25701SOL    HW178544   3.538   7.613   9.019 -2.2233 -0.2587 -1.9770
25701SOL    HW278545   3.478   7.522   9.124  0.3288  0.4505  0.1998
25702SOL     OW78546   5.950   5.494   7.111  0.0208 -0.3666  0.0289
25702SOL    HW178547   5.919   5.516   7.024  1.5804 -0.3623 -0.5539
25702SOL    HW278548   5.918   5.405   7.127 -1.5337  0.1782  0.0942
25703SOL     OW78549   7.852   5.153  10.878 -0.1000 -0.0401  0.2169
25703SOL    HW178550   7.901   5.087  10.927  1.3916 -0.6200 -1.9169
25703SOL    HW278551   7.892   5.236  10.905  1.7319 -0.4615 -1.0387
25704SOL     OW78552   5.153   0.136   9.435  0.0232  0.0759 -0.1020
25704SOL    HW178553   5.215   0.086   9.383  1.2200 -0.1197  1.4321
25704SOL    HW278554   5.087   0.072   9.463  1.0874 -0.5232  1.1554
25705SOL     OW78555   0.190   3.242   3.974 -0.0788  0.5730  0.3781
25705SOL    HW178556   0.245   3.176   3.932 -0.0590 -0.4312  1.8738
25705SOL    HW278557   0.104   3.232   3.933 -0.1891 -0.7016  0.8569
25706SOL     OW78558   6.326   0.668  12.216 -0.3060  0.2219 -0.3916
25706SOL    HW178559   6.326   0.738  12.150 -1.3162 -0.1876 -0.8619
25706SOL    HW278560   6.284   0.707  12.292  1.5780  0.9439  0.3292
25707SOL     OW78561   0.866   6.900  11.434  0.7421  0.2764 -0.1063
25707SOL    HW178562   0.955   6.900  11.470  0.3362  1.0512  0.9805
25707SOL    HW278563   0.867   6.968  11.367  1.0225  0.1602 -0.2194
25708SOL     OW78564   6.142   3.350   4.242  0.8459  0.5681 -0.2660
25708SOL    HW178565   6.148   3.372   4.335  0.4279 -0.7218  0.0868
25708SOL    HW278566   6.212   3.400   4.201  1.6339  0.4566  0.8834
25709SOL     OW78567   4.908   4.978   0.460 -0.1452  0.2185  0.1955
25709SOL    HW178568   4.919   4.887   0.432  1.7301  0.2559  0.6675
25709SOL    HW278569   4.884   5.024   0.380 -3.3849 -0.9842  0.3556
25710SOL     OW78570   2.955   7.157   6.848 -0.2267  0.8578  0.0306
25710SOL    HW178571   2.942   7.224   6.781  0.8638  0.3087 -0.7542
25710SOL    HW278572   2.942   7.074   6.802 -0.4479  0.4918  0.7347
25711SOL     OW78573   6.600   5.670   2.174  0.9075  0.2541  0.2364
25711SOL    HW178574   6.557   5.676   2.089  0.8131 -1.5415  0.1269
25711SOL    HW278575   6.688   5.638   2.154  1.8142  2.3016  0.6129
25712SOL     OW78576   4.578   1.382   8.847  0.4042  0.4644 -0.0131
25712SOL    HW178577   4.519   1.385   8.923  0.5379  1.1235  0.0727
25712SOL    HW278578   4.559   1.298   8.806  0.7338 -0.1546  1.0637
25713SOL     OW78579   3.064   6.524   4.332 -0.1242 -0.2927 -0.6603
25713SOL    HW178580   3.085   6.600   4.386 -2.0659  0.1669 -0.4690
25713SOL    HW278581   2.975   6.499   4.358  0.8473 -3.3879  0.1018
25714SOL     OW78582   2.333   7.339   7.218  0.1996  0.1364  0.1334
25714SOL    HW178583   2.382   7.412   7.181  1.0529  0.3788  1.6823
25714SOL    HW278584   2.358   7.264   7.164  0.6475  0.6590 -0.3993
25715NA      NA78585   2.598   7.721   3.808 -0.2759  0.1394 -0.2415
25716NA      NA78586   6.184   3.128   0.813  0.0972 -0.1476  0.5909
25717NA      NA78587   4.837   4.677   8.585  0.0577  0.0171 -0.2004
25718NA      NA78588   5.328   4.586   6.379  0.1577  0.0047 -0.4603
25719NA      NA78589   3.700   4.075   1.754  0.1986  0.0024  0.0049
25720NA      NA78590   5.001   1.354   7.358 -0.4688 -0.2473  0.1711
25721NA      NA78591   6.250   1.038  10.596  0.1046  0.1451 -0.1890
25722NA      NA78592   2.541   3.555   8.518 -0.0387 -0.1957 -0.1214
25723NA      NA78593   7.036   1.286   6.470  0.6557  0.4214 -0.1678
25724NA      NA78594   4.017   4.168   7.256 -0.0178 -0.1072 -0.1748
25725NA      NA78595   6.821   1.373   7.083 -0.0702  0.1859 -0.1082
25726NA      NA78596   4.774   7.175   3.339  0.0489  0.3663 -0.3150
25727NA      NA78597   2.703   2.449   4.490  0.4913 -0.4102 -0.3825
25728NA      NA78598   3.225   5.389   6.231 -0.2428  0.0834 -0.0016
25729NA      NA78599   2.352   0.146   7.989 -0.2318 -0.1721 -0.4165
25730NA      NA78600   4.935   4.152   8.198 -0.2723 -0.0600 -0.0977
25731NA      NA78601   6.614   6.347   6.656  0.5298 -0.4290  0.1474
25732NA      NA78602   0.550   1.011   7.300 -0.1153 -0.6156  0.4694
25733NA      NA78603   3.658   4.041  10.897  0.2258 -0.0095  0.3998
25734NA      NA78604   4.791   3.228   3.879  0.1540 -0.1574 -0.0772
25735NA      NA78605   4.250   6.190   0.979 -0.5692 -0.0610 -0.0971
25736NA      NA78606   2.371   7.452   9.167 -0.2496 -0.2188 -0.0169
25737NA      NA78607   0.379   1.505   4.300 -0.0173 -0.1463 -0.3688
25738NA      NA78608   3.653   4.029   6.487 -0.2327 -0.2024  0.2734
25739NA      NA78609   6.446   7.967  10.368 -0.1327  0.3339 -0.2450
25740NA      NA78610   1.951   3.026   3.057  0.2677  0.1332 -0.4631
25741NA      NA78611   7.447   6.870   9.722 -0.2295 -0.2837 -0.2031
25742NA      NA78612   0.532   7.117   5.544  0.4765  0.1216 -0.1763
25743NA      NA78613   5.878   0.530   8.984  0.3051  0.1113 -0.0667
25744NA      NA78614   1.605   0.783   8.777 -0.3143  0.0679  0.8069
25745NA      NA78615   3.940   2.961   2.110 -0.0430  0.2510 -0.1978
25746NA      NA78616   1.262   6.553  12.312 -0.6125 -0.4785  0.3439
25747NA      NA78617   0.186   7.645  11.247  0.6562 -0.0966 -0.3923
25748NA      NA78618   4.092   5.197   7.556  0.2480 -0.3710 -0.0832
25749NA      NA78619   0.075   5.775  11.687 -0.3484 -0.9627 -0.1122
25750NA      NA78620   0.149   0.955  11.027 -0.0823  0.5869 -0.0147
25751NA      NA78621   3.380   0.827   1.252 -0.5245 -0.0918  0.2546
25752NA      NA78622   0.052   2.707  11.508  0.4004  0.1416  0.1135
25753NA      NA78623   0.914   0.123   2.363  0.0128  0.2656  0.2595
25754NA      NA78624   5.850   3.023  11.442 -0.5849  0.2164 -0.2297
25755NA      NA78625   0.813   7.749   9.586 -0.0156 -0.0453 -0.2771
25756NA      NA78626   4.851   0.805   5.608 -0.2309 -0.1350  0.1548
25757NA      NA78627   7.701   1.995  10.184  0.1246 -0.0794  0.0729
25758NA      NA78628   0.212   2.607   1.713 -0.3684 -0.4625 -0.0760
25759NA      NA78629   0.790   6.633   3.033  0.5526 -0.3234 -0.3796
25760NA      NA78630   3.230   4.847   7.047  0.1502 -0.2425  0.0348
25761NA      NA78631   3.636   5.365   4.798  0.5626  0.1927  0.2716
25762NA      NA78632   3.183   1.687   0.261 -0.0967  0.8862 -0.1908
25763NA      NA78633   1.701   1.145   3.389 -0.0275 -0.3734 -0.6654
25764NA      NA78634   2.144   5.091   9.978  0.5563  0.0059  0.6867
25765NA      NA78635   1.426   7.708   8.515  0.0537  0.1759 -0.0686
25766NA      NA78636   4.984   3.513  10.854  0.2722  0.0240 -0.3721
25767NA      NA78637   4.449   6.268   5.751 -0.4215  0.0305  0.0894
25768NA      NA78638   3.204   5.883   1.338 -0.1727 -0.4137 -0.3944
25769NA      NA78639   1.862   7.750   4.481 -0.3106 -0.2214 -0.2196
25770NA      NA78640   6.702   4.608   9.969  0.3961  0.3501 -0.0875
25771NA      NA78641   4.714   4.382   2.442 -0.0173  0.1033 -0.4937
25772NA      NA78642   4.797   3.923   5.509  0.3855  0.0529 -0.2806
25773NA      NA78643   6.763   2.459   4.131  0.1497 -0.4052 -0.6162
25774NA      NA78644   1.093   4.643   2.758 -0.1962 -0.2464  0.2570
25775NA      NA78645   1.239   7.694   0.062 -0.3903 -0.1873  0.1976
25776NA      NA78646   4.439   7.804  12.046 -0.3921  0.0012  0.8258
25777NA      NA78647   2.867   3.967   7.193 -0.1967 -0.5507  0.0424
25778NA      NA78648   4.904   3.718   8.593 -0.0479  0.2205 -0.1134
25779NA      NA78649   4.006   5.233   6.057  0.1111  0.0975 -0.0861
25780NA      NA78650   6.556   6.243  10.411 -0.4385  0.2543 -0.0952
25781NA      NA78651   4.489   5.119   6.478  0.2238 -0.0294  0.1522
25782NA      NA78652   6.988   4.807   0.681 -0.8739  0.0416  0.1269
25783NA      NA78653   3.497   5.512   9.186  0.3969  0.0252 -0.1839
25784NA      NA78654   2.477   3.214  12.200  0.0875  0.3351 -0.2540
25785NA      NA78655   7.621   0.223   8.711  0.0278 -0.1801  0.6815
25786NA      NA78656   0.496   7.754   5.334 -0.1885 -0.3385 -0.1163
25787NA      NA78657   5.170   6.888   1.341  0.3363 -0.1821 -0.3076
25788NA      NA78658   0.770   6.497  10.751 -0.1513 -0.3289 -0.3895
25789NA      NA78659   1.019   5.360   8.388  0.2304 -0.0960 -0.0748
25790NA      NA78660   3.505   3.763   4.786 -0.4576 -0.3951  0.0353
25791NA      NA78661   2.806   3.644   3.025 -0.3695  0.0730 -0.1506
25792NA      NA78662   3.025   1.994   9.376 -0.1505 -0.0694 -0.5460
25793NA      NA78663   4.413   4.891   3.164  0.5547 -0.0500  0.1291
25794NA      NA78664   6.395   7.575   7.858  0.4693 -0.1866 -0.1987
25795NA      NA78665   3.470   4.012   7.349 -0.6253  0.7574 -0.0999
25796NA      NA78666   3.673   3.136   7.354  0.1074  0.1924  0.4166
25797NA      NA78667   3.523   6.673  11.034 -0.2421  0.6743 -0.0797
25798NA      NA78668   1.587   0.350   1.398 -0.3796  0.2196  0.1468
25799NA      NA78669   4.467   3.540   5.029  0.3428 -0.0552 -0.2617
25800NA      NA78670   6.891   3.615   8.664 -0.2627  0.1945  0.2872
25801NA      NA78671   5.114   4.496  10.219  0.4112  0.3271 -0.1125
25802NA      NA78672   3.515   1.749  11.508  0.0171  0.6589 -0.1552
25803NA      NA78673   3.800   5.254   3.809 -0.2387 -0.0696 -0.0977
25804NA      NA78674   1.508   7.434   5.448 -0.0469  0.0131 -0.1182
25805NA      NA78675   4.579   7.657   5.196 -0.1603 -0.2382 -0.3008
25806NA      NA78676   5.621   2.160   7.825  0.7338  0.1198  0.1114
25807NA      NA78677   0.606   2.926  12.272 -0.3964  0.8102  0.1844
25808NA      NA78678   5.961   7.116  10.822  0.1052  0.1682 -0.0587
25809NA      NA78679   5.063   3.705   5.048 -0.7403 -0.1910  0.0843
25810NA      NA78680   7.360   0.748   2.976 -0.2163 -0.1990  0.0568
25811NA      NA78681   3.074   1.929   2.406  0.3906 -0.2765 -0.2789
25812NA      NA78682   5.916   1.868   3.706 -0.1278 -0.3689  0.1600
25813NA      NA78683   1.583   5.211   5.214  0.2238 -0.3651  0.7996
25814NA      NA78684   5.277   1.417  11.762 -0.2932 -0.4743 -0.1079
25815NA      NA78685   2.833   2.290   5.481 -0.1019  0.0224 -0.1516
25816NA      NA78686   6.241   1.799   5.457 -0.3156 -0.3509  0.1620
25817NA      NA78687   0.878   2.849   4.282  0.3456  0.9108 -0.2031
25818NA      NA78688   3.320   7.802   5.957  0.2440  0.5214 -0.5275
25819NA      NA78689   2.913   6.540  10.193  0.4204  0.0893  0.3293
25820NA      NA78690   4.941   7.935   2.931  0.3062  0.3024 -0.4009
25821NA      NA78691   1.923   1.499   9.675 -0.1098 -0.2969 -0.4281
25822NA      NA78692   7.406   6.807   6.959 -0.0676 -0.6964 -0.0140
25823NA      NA78693   7.576   5.172   4.643  0.0079  0.1072  0.1179
25824NA      NA78694   4.026   4.208   3.361  0.1320 -0.5820  0.3579
25825NA      NA78695   1.483   1.096  11.254 -0.0481  0.1189  0.3450
25826NA      NA78696   7.776   3.576   7.101  0.1701  0.3145  0.4355
25827NA      NA78697   1.697   2.243   2.451 -0.1042  0.1778 -0.3333
25828NA      NA78698   5.055   5.056   1.841  0.3600  0.2455  0.0291
25829NA      NA78699   0.467   6.739   5.921  0.5128 -0.0188  0.1423
25830NA      NA78700   4.107   7.620   2.650  0.2725  0.1582 -0.3687
25831NA      NA78701   5.380   6.690   9.334  0.3740 -0.1839  0.2316
25832NA      NA78702   3.922   3.603   7.107 -0.0336  0.0806 -0.1896
25833NA      NA78703   7.073   6.408   1.487  0.7416 -0.5898 -0.1343
25834NA      NA78704   6.995   4.183   4.902  0.3136 -0.4845 -0.2067
25835NA      NA78705   2.007   2.901   7.457 -0.3729 -0.0719 -0.1984
25836NA      NA78706   2.508   4.359  12.242 -0.1041  0.4677  0.3895
25837NA      NA78707   1.240   4.773   0.444  0.0657  0.3714  0.4734
25838NA      NA78708   7.029   1.491   1.429  0.3497 -0.0265 -0.3061
25839NA      NA78709   4.994   2.746   7.995  0.1105  0.2936 -0.1719
25840NA      NA78710   1.876   1.601   8.176 -0.5749  0.6079 -0.0566
25841NA      NA78711   7.361   5.272   7.040 -0.6832 -0.6155 -0.0893
25842NA      NA78712   3.821   5.691   7.265  0.2350  0.2752 -0.1203
25843NA      NA78713   5.971   5.004   2.456 -0.2950  0.2883 -0.0336
25844NA      NA78714   6.159   3.004  10.913 -0.0830  0.1540 -0.6480
25845NA      NA78715   4.676   2.825   8.534  0.1918  0.6791  0.2786
25846NA      NA78716   6.728   4.098   6.826 -0.0174  0.2850  0.6992
25847NA      NA78717   4.632   2.028   2.078 -0.1277  0.5771  0.1293
25848NA      NA78718   6.647   4.583  10.594  0.2028 -0.3024  0.3012
25849NA      NA78719   2.457   2.156   4.242 -0.1799 -0.1969 -0.3478
25850NA      NA78720   2.447   4.827   9.328  0.5169 -0.2602  0.4962
25851NA      NA78721   2.818   3.075   5.020  0.0677 -0.1691 -0.4775
25852NA      NA78722   0.714   3.567  10.381  0.0747  0.0554  0.5268
25853NA      NA78723   0.339   7.025   2.701  0.0822  0.4129  0.2002
25854NA      NA78724   2.583   4.157   6.468  0.1196  0.5939  0.1365
25855NA      NA78725   4.122   2.999  11.138 -0.5053  0.5374  0.2461
25856NA      NA78726   3.238   3.116   7.038 -0.1888  0.5454  0.0247
25857NA      NA78727   3.430   1.943   4.157  0.2799 -0.3483  0.1807
25858NA      NA78728   2.918   4.145   9.680  0.0727  0.0463  0.3148
25859NA      NA78729   5.074   0.077   5.940 -0.0415  0.2725 -0.3225
25860NA      NA78730   7.826   6.417   1.843  0.0470  0.0867  0.2267
25861NA      NA78731   7.862   5.088   0.101 -0.0832  0.4231 -0.2744
25862NA      NA78732   4.340   3.462   7.732 -0.4771 -0.0925 -0.3274
25863NA      NA78733   6.168   3.340   7.650 -0.2629  0.2931 -0.2159
25864NA      NA78734   4.278   4.400   5.554 -0.5824 -0.2916  0.4048
25865NA      NA78735   4.033   2.696   7.919  0.3940 -0.3169  0.0154
25866NA      NA78736   6.639   0.191  10.044 -0.1830  0.4120  0.2244
25867NA      NA78737   3.618   4.363   4.320  0.1859 -0.0497  0.0731
25868NA      NA78738   4.925   2.940   1.080 -0.0347  0.2179 -0.0054
25869NA      NA78739   5.637   5.276   1.489 -0.0695 -0.4795  0.3059
25870NA      NA78740   4.070   4.249   9.287 -0.1184  0.1909 -0.2012
25871NA      NA78741   4.882   7.941   4.567  0.0873 -0.4190 -0.1606
25872NA      NA78742   6.005   5.642  12.060 -0.9707  0.3606 -0.1663
25873NA      NA78743   4.831   5.689  11.013  0.3008 -0.0814  0.7057
25874NA      NA78744   2.620   0.820   6.805 -0.1730 -0.0393  0.0292
25875NA      NA78745   5.144   5.850   4.951 -0.4902 -0.3429 -0.4712
25876NA      NA78746   6.869   2.625   6.971 -0.5955  0.0168 -0.7212
25877NA      NA78747   1.283   1.811   5.685 -0.5705 -0.4440 -0.3169
25878NA      NA78748   7.866   4.836   4.149  0.2452 -0.0136  0.2738
25879NA      NA78749   5.454   3.418   3.082 -0.0381  0.2291  0.1371
25880NA      NA78750   2.861   5.284   2.302 -0.4041  0.0989  0.0698
25881NA      NA78751   6.880   2.744   6.449 -0.1867 -0.3744  0.2559
25882NA      NA78752   6.497   7.371   2.853 -0.2364 -0.4806 -0.0608
25883NA      NA78753   3.669   1.097   6.131  0.5548 -0.2613 -0.4719
25884CL      CL78754   1.750   5.616   6.438 -0.4916  0.0711  0.0379
25885CL      CL78755   5.731   5.115   2.359 -0.4946 -0.1634 -0.0407
25886CL      CL78756   7.541   6.443   4.487  0.3508  0.3642 -0.1196
25887CL      CL78757   1.062   6.357   4.179 -0.3069  0.0359 -0.3745
25888CL      CL78758   6.940   6.897  10.129 -0.0155 -0.2905  0.1985
25889CL      CL78759   2.125   2.399   8.524 -0.2394 -0.0782 -0.1422
25890CL      CL78760   7.009   4.273   7.466 -0.0327 -0.0926 -0.0192
25891CL      CL78761   0.449   3.250   8.290  0.2496  0.0369  0.0499
25892CL      CL78762   6.007   2.272   8.324  0.4837  0.2834 -0.2353
25893CL      CL78763   2.155   1.394   9.661 -0.0338  0.2648  0.0350
25894CL      CL78764   1.099   1.336   3.125 -0.0867 -0.3407 -0.0917
25895CL      CL78765   2.915   6.243  10.883  0.3537 -0.0717  0.0813
25896CL      CL78766   3.255   3.653   0.801 -0.5422 -0.2722 -0.4718
25897CL      CL78767   4.887   6.253   1.743  0.0471  0.2485  0.5271
25898CL      CL78768   3.364   6.713   6.158  0.0242 -0.1859 -0.3387
25899CL      CL78769   1.621   7.026   9.379 -0.0209 -0.2986 -0.0256
25900CL      CL78770   0.433   5.383   1.910 -0.2797 -0.0989  0.4589
25901CL      CL78771   2.569   5.031   9.462 -0.3176 -0.1217 -0.6280
25902CL      CL78772   0.243   4.874   4.886 -0.2878 -0.3902 -0.1040
25903CL      CL78773   1.709   2.082   1.976  0.2335 -0.1481 -0.5343
25904CL      CL78774   6.633   3.214   0.627  0.1529 -0.1963  0.0653
25905CL      CL78775   3.588   0.387   7.009 -0.3239 -0.0629 -0.2505
25906CL      CL78776   3.620   6.840   8.770  0.1254 -0.3325 -0.2461
25907CL      CL78777   0.056   3.844   3.642  0.2984 -0.3128  0.0972
25908CL      CL78778   6.309   3.791   6.898 -0.1234 -0.0735 -0.0528
25909CL      CL78779   4.731   0.052   9.224  0.1717  0.2671 -0.2416
25910CL      CL78780   3.394   4.025  10.872  0.2287 -0.2617  0.2206
25911CL      CL78781   2.627   3.858   7.644 -0.0532  0.2653  0.0537
25912CL      CL78782   4.672   0.287   3.536 -0.4269 -0.2024 -0.0034
25913CL      CL78783   1.786   3.523  11.770 -0.1539  0.0853  0.2007
25914CL      CL78784   5.544   4.568   1.469 -0.2153  0.7917  0.0892
25915CL      CL78785   2.897   0.478   8.515  0.0549 -0.2309 -0.2673
25916CL      CL78786   6.228   7.842   9.930 -0.1866  0.0965  0.0935
25917CL      CL78787   5.334   0.694   2.716  0.0823  0.1185 -0.3341
25918CL      CL78788   2.330   2.287  11.876 -0.0517 -0.0544 -0.2425
25919CL      CL78789   7.120   4.319   5.357  0.0062  0.5259  0.0136
25920CL      CL78790   4.722   2.271   7.252 -0.1746 -0.3783 -0.1039
25921CL      CL78791   7.561   4.925   2.130 -0.0982  0.1271 -0.0376
25922CL      CL78792   5.886   1.897   0.444 -0.5405 -0.1137  0.4830
25923CL      CL78793   0.662   0.910   0.157 -0.4033 -0.1583  0.2436
25924CL      CL78794   7.578   5.758   0.883 -0.1465  0.1395 -0.1608
25925CL      CL78795   4.464   5.911   4.316  0.3003  0.1246 -0.2048
25926CL      CL78796   4.731   5.975   5.227  0.7003  0.0234 -0.3010
25927CL      CL78797   3.206   3.309  11.879  0.1251 -0.4280 -0.1181
25928CL      CL78798   0.062   6.468   2.762 -0.1775  0.1088 -0.2856
25929CL      CL78799   2.401   0.337   9.062  0.1078 -0.1742 -0.2162
25930CL      CL78800   2.438   1.233   3.157 -0.3032  0.2418 -0.2597
25931CL      CL78801   0.942   5.733  10.843  0.0614  0.3293  0.2616
25932CL      CL78802   4.952   5.862   0.945  0.5727 -0.1741 -0.6175
25933CL      CL78803   5.710   4.816   6.063  0.8082 -0.1945  0.0297
25934CL      CL78804   6.142   7.141   1.972 -0.3743  0.0041  0.6420
25935CL      CL78805   2.465   7.895   5.158 -0.0981 -0.3020  0.2267
25936CL      CL78806   6.363   3.105  10.502 -0.1107 -0.1044  0.0115
25937CL      CL78807   7.035   1.727   6.766  0.3049  0.1036 -0.1893
25938CL      CL78808   4.367   7.728   5.631 -0.2740  0.2564 -0.1266
25939CL      CL78809   0.079   0.849   2.856  0.4332 -0.2261  0.1885
25940CL      CL78810   7.705   4.147   6.751 -0.0620  0.0712  0.2755
25941CL      CL78811   6.703   7.072   7.642  0.3400  0.1538 -0.1562
25942CL      CL78812   0.747   7.020  10.797 -0.0470  0.2801 -0.0943
25943CL      CL78813   1.848   5.988   1.280  0.4265 -0.3165  0.0693
25944CL      CL78814   2.292   2.558   5.617 -0.3981  0.3791  0.0534
25945CL      CL78815   1.672   1.352   7.846 -0.1473  0.3882  0.0465
25946CL      CL78816   7.654   6.418   0.360 -0.1261 -0.1762  0.3719
25947CL      CL78817   5.234   7.764   7.139 -0.0780 -0.5844 -0.0775
25948CL      CL78818   3.142   5.177   1.073  0.2288  0.2155  0.0572
25949CL      CL78819   6.602   0.296   5.251 -0.3229 -0.0849  0.2265
25950CL      CL78820   2.899   2.535  10.790 -0.1161 -0.3441 -0.0518
25951CL      CL78821   0.855   0.430  10.258 -0.0897 -0.2134 -0.1328
25952CL      CL78822   6.907   2.450   5.415  0.1646 -0.1479 -0.5040
25953CL      CL78823   1.669   1.111   4.221 -0.0429  0.2857  0.0514
25954CL      CL78824   5.838   3.968  12.018 -0.0742 -0.1427 -0.0830
25955CL      CL78825   7.939   6.838   5.874 -0.3583  0.1228  0.1581
25956CL      CL78826   7.633   1.291  11.676  0.0887 -0.1495 -0.0514
25957CL      CL78827   7.764   3.668   2.218 -0.3395  0.1882 -0.2262
25958CL      CL78828   1.915   3.432   1.733  0.3274  0.3548 -0.0855
25959CL      CL78829   5.625   1.987   1.101  0.2876 -0.1131  0.0976
25960CL      CL78830   0.084   4.393  11.297 -0.3336 -0.3717  0.0132
25961CL      CL78831   1.748   0.045   0.476 -0.3480 -0.0073 -0.0077
25962CL      CL78832   5.852   3.572   9.749 -0.4926  0.2488  0.1277
25963CL      CL78833   1.458   2.813   9.133 -0.1331  0.1698  0.0039
25964CL      CL78834   3.836   1.351  11.401  0.1522 -0.3489 -0.0940
25965CL      CL78835   4.559   2.588   0.670 -0.0853 -0.4958  0.1317
25966CL      CL78836   0.990   7.361   0.213  0.1527 -0.0703 -0.4326
25967CL      CL78837   6.237   6.290   1.519  0.0901 -0.0425  0.3856
25968CL      CL78838   3.193   5.748  12.336 -0.3214 -0.3365  0.2178
25969CL      CL78839   7.000   4.454   9.044 -0.4599  0.1968 -0.1386
25970CL      CL78840   0.722   4.240   0.415 -0.1695 -0.0505 -0.4187
25971CL      CL78841   5.349   2.025   8.325 -0.2760 -0.4338  0.3169
25972CL      CL78842   3.595   6.463   7.093 -0.1471  0.0709  0.2171
25973CL      CL78843   7.375   0.598   8.532 -0.1091  0.1591 -0.2304
25974CL      CL78844   2.896   6.586  11.642 -0.1929 -0.5908  0.3192
25975CL      CL78845   5.972   1.722   1.376 -0.2616 -0.4480  0.0345
25976CL      CL78846   0.197   5.525   8.763 -0.3160  0.0287  0.2333
25977CL      CL78847   3.609   2.133  12.394  0.0706 -0.1379 -0.0402
25978CL      CL78848   4.107   1.514   3.395 -0.1331 -0.2088 -0.0294
25979CL      CL78849   6.804   4.127   2.078 -0.1146 -0.1094  0.0187
25980CL      CL78850   2.090   0.201   4.688 -0.2197 -0.0986  0.0696
25981CL      CL78851   2.589   1.138   0.144 -0.0308 -0.0208  0.1400
25982CL      CL78852   7.547   2.958   6.889  0.1192 -0.2716  0.2171
25983CL      CL78853   2.756   1.547   7.382 -0.1589  0.0863  0.0293
25984CL      CL78854   0.766   1.755   4.918  0.1961 -0.0391 -0.0366
25985CL      CL78855   5.362   5.174  10.906  0.0360 -0.4681 -0.0130
25986CL      CL78856   1.116   5.682   0.334  0.2171  0.2163 -0.2440
25987CL      CL78857   1.805   1.025   6.726  0.3634 -0.6699  0.1265
25988CL      CL78858   7.211   7.873   9.930 -0.1373 -0.5193  0.1568
25989CL      CL78859   0.078   7.737   4.466 -0.3677  0.5157  0.1610
25990CL      CL78860   0.779   1.331   3.672 -0.2787  0.1700 -0.0694
25991CL      CL78861   1.994   7.416   4.100  0.4461 -0.1517 -0.1581
25992CL      CL78862   5.463   5.513   5.469  0.1221  0.2930 -0.1871
25993CL      CL78863   0.638   2.484   4.218  0.8200 -0.4568 -0.1828
25994CL      CL78864   6.578   1.172   9.904 -0.1511  0.4796  0.2272
25995CL      CL78865   2.715   2.072   4.229  0.5553  0.0309 -0.1567
25996CL      CL78866   0.332   1.941   1.659  0.3450  0.2289 -0.1419
25997CL      CL78867   5.397   2.747   9.514  0.6089 -0.2079  0.4208
25998CL      CL78868   5.724   2.706  11.099  0.3317 -0.1214  0.2779
25999CL      CL78869   4.183   7.082   0.073 -0.2680 -0.1293  0.0808
26000CL      CL78870   3.400   7.245   2.152 -0.2488 -0.2217  0.0672
26001CL      CL78871   4.922   0.340   5.687 -0.2889 -0.3721 -0.1447
26002CL      CL78872   1.494   7.923   9.587  0.0795 -0.2086 -0.0982
26003CL      CL78873   7.417   0.648   0.575 -0.0207  0.0933 -0.0727
26004CL      CL78874   5.956   3.153   5.418  0.0660  0.0716  0.5020
   7.97992   7.97992  12.46863
